 Entering Gaussian System, Link 0=g16
 Initial command:
 /cm/shared/apps/gaussian/g16A03/g16/l1.exe "/local/lorenzo/gaurun30277/Gau-109998.inp" -scrdir="/local/lorenzo/gaurun30277"
 Entering Link 1 = /cm/shared/apps/gaussian/g16A03/g16/l1.exe PID=    109999.
  
 Copyright (c) 1988,1990,1992,1993,1995,1998,2003,2009,2016,
            Gaussian, Inc.  All Rights Reserved.
  
 This is part of the Gaussian(R) 16 program.  It is based on
 the Gaussian(R) 09 system (copyright 2009, Gaussian, Inc.),
 the Gaussian(R) 03 system (copyright 2003, Gaussian, Inc.),
 the Gaussian(R) 98 system (copyright 1998, Gaussian, Inc.),
 the Gaussian(R) 94 system (copyright 1995, Gaussian, Inc.),
 the Gaussian 92(TM) system (copyright 1992, Gaussian, Inc.),
 the Gaussian 90(TM) system (copyright 1990, Gaussian, Inc.),
 the Gaussian 88(TM) system (copyright 1988, Gaussian, Inc.),
 the Gaussian 86(TM) system (copyright 1986, Carnegie Mellon
 University), and the Gaussian 82(TM) system (copyright 1983,
 Carnegie Mellon University). Gaussian is a federally registered
 trademark of Gaussian, Inc.
  
 This software contains proprietary and confidential information,
 including trade secrets, belonging to Gaussian, Inc.
  
 This software is provided under written license and may be
 used, copied, transmitted, or stored only in accord with that
 written license.
  
 The following legend is applicable only to US Government
 contracts under FAR:
  
                    RESTRICTED RIGHTS LEGEND
  
 Use, reproduction and disclosure by the US Government is
 subject to restrictions as set forth in subparagraphs (a)
 and (c) of the Commercial Computer Software - Restricted
 Rights clause in FAR 52.227-19.
  
 Gaussian, Inc.
 340 Quinnipiac St., Bldg. 40, Wallingford CT 06492
  
  
 ---------------------------------------------------------------
 Warning -- This program may not be used in any manner that
 competes with the business of Gaussian, Inc. or will provide
 assistance to any competitor of Gaussian, Inc.  The licensee
 of this program is prohibited from giving any competitor of
 Gaussian, Inc. access to this program.  By using this program,
 the user acknowledges that Gaussian, Inc. is engaged in the
 business of creating and licensing software in the field of
 computational chemistry and represents and warrants to the
 licensee that it is not a competitor of Gaussian, Inc. and that
 it will not use this program in any manner prohibited above.
 ---------------------------------------------------------------
  

 Cite this work as:
 Gaussian 16, Revision A.03,
 M. J. Frisch, G. W. Trucks, H. B. Schlegel, G. E. Scuseria, 
 M. A. Robb, J. R. Cheeseman, G. Scalmani, V. Barone, 
 G. A. Petersson, H. Nakatsuji, X. Li, M. Caricato, A. V. Marenich, 
 J. Bloino, B. G. Janesko, R. Gomperts, B. Mennucci, H. P. Hratchian, 
 J. V. Ortiz, A. F. Izmaylov, J. L. Sonnenberg, D. Williams-Young, 
 F. Ding, F. Lipparini, F. Egidi, J. Goings, B. Peng, A. Petrone, 
 T. Henderson, D. Ranasinghe, V. G. Zakrzewski, J. Gao, N. Rega, 
 G. Zheng, W. Liang, M. Hada, M. Ehara, K. Toyota, R. Fukuda, 
 J. Hasegawa, M. Ishida, T. Nakajima, Y. Honda, O. Kitao, H. Nakai, 
 T. Vreven, K. Throssell, J. A. Montgomery, Jr., J. E. Peralta, 
 F. Ogliaro, M. J. Bearpark, J. J. Heyd, E. N. Brothers, K. N. Kudin, 
 V. N. Staroverov, T. A. Keith, R. Kobayashi, J. Normand, 
 K. Raghavachari, A. P. Rendell, J. C. Burant, S. S. Iyengar, 
 J. Tomasi, M. Cossi, J. M. Millam, M. Klene, C. Adamo, R. Cammi, 
 J. W. Ochterski, R. L. Martin, K. Morokuma, O. Farkas, 
 J. B. Foresman, and D. J. Fox, Gaussian, Inc., Wallingford CT, 2016.
 
 ******************************************
 Gaussian 16:  ES64L-G16RevA.03 25-Dec-2016
                 9-May-2017 
 ******************************************
 %Mem=7000MW
 %NProcShared=16
 Will use up to   16 processors via shared memory.
 %Chk=BPY_pbe0.chk
 %nosave
 ----------------------------------------------------------------------
 #p td(nstate=6) pbe1pbe/6-311+G(d,p) nosymm eet=fragment=3 scrf(iefpcm
 ,solvent=Chloroform)
 ----------------------------------------------------------------------
 1/38=1,62=3,160=80,172=1/1;
 2/12=2,15=1,17=6,18=5,40=1/2;
 1/38=1,53=2,62=3,63=1,160=80/22;
 3/5=4,6=6,7=111,11=9,25=1,30=1,70=2201,72=7,74=-13,89=1/1,2,3,8;
 4//1;
 6/7=2,8=2,9=2,10=2,11=2/1;
 1/53=2,62=3,63=1,160=80/22;
 3/5=7,6=11,7=111,11=9,25=1,30=1,70=41002205,72=7,74=-13,82=7/1,2,3,8;
 4//1;
 5/5=2,38=5,53=7/2;
 8/6=1,10=2,108=6/1;
 9/41=6,42=1,70=2/14;
 6/7=2,8=2,9=2,10=2/1;
 1/53=2,62=3,63=1,160=80/22(-6);
 9/41=6,70=2/25;
 99/5=1,9=1/99;
 Leave Link    1 at Tue May  9 11:00:16 2017, MaxMem=  7340032000 cpu:               1.2 elap:               0.1
 (Enter /cm/shared/apps/gaussian/g16A03/g16/l101.exe)
 ---
 opt
 ---
 Symbolic Z-matrix:
 Charge =  0 Multiplicity = 1 in supermolecule
 Charge =  0 Multiplicity = 1 in fragment      1.
 Charge =  0 Multiplicity = 1 in fragment      2.
 Charge =  0 Multiplicity = 1 in fragment      3.
 C(Fragment=1)         1.54826   10.55377   1.79018 
 B(Fragment=1)         1.13712   13.00966   3.47167 
 N(Fragment=1)         1.93507   12.92967   2.10341 
 C(Fragment=1)         2.44763   13.94151   1.36213 
 C(Fragment=1)         2.07096   11.75641   1.34897 
 C(Fragment=1)         2.95339   13.42618   0.14887 
 C(Fragment=1)         2.7243    12.05972   0.12381 
 H(Fragment=1)         3.42537   14.02043  -0.62148 
 N(Fragment=1)         0.76879   11.51905   3.87684 
 C(Fragment=1)         0.90745   10.42543   3.00981 
 C(Fragment=1)         0.26211   11.04084   5.0418 
 C(Fragment=1)         0.43504   9.25083   3.65447 
 C(Fragment=1)         0.04028   9.65139   4.92031 
 H(Fragment=1)        -0.35867   9.0241    5.70558 
 C(Fragment=1)         3.07734   11.09072  -0.96153 
 H(Fragment=1)         3.81261   10.35405  -0.62281 
 H(Fragment=1)         2.20292   10.53448  -1.31235 
 H(Fragment=1)         3.50381   11.61118  -1.82049 
 C(Fragment=1)         2.45027   15.38158   1.74701 
 H(Fragment=1)         2.68521   15.99268   0.87451 
 H(Fragment=1)         1.48323   15.69031   2.14414 
 H(Fragment=1)         3.19776   15.59528   2.51494 
 C(Fragment=1)         0.41186   7.86828   3.08051 
 H(Fragment=1)        -0.16311   7.82393   2.15077 
 H(Fragment=1)         1.41946   7.5062    2.8533 
 H(Fragment=1)        -0.03937   7.1656    3.78278 
 C(Fragment=1)        -0.00971   11.8314   6.27819 
 H(Fragment=1)         0.78656   12.54412   6.48357 
 H(Fragment=1)        -0.94205   12.39589   6.20023 
 H(Fragment=1)        -0.10744   11.15135   7.12606 
 H(Fragment=1)         1.65779   9.67567   1.16361 
 O(Fragment=1)        -0.01899   13.84003   3.1431        H        44    0.        0.        0.        0. 
 O(Fragment=1)         1.92562   13.51019   4.59552       H        34    0.        0.        0.        0. 
 C(Fragment=2)         2.03449   14.82058   4.93217       H        33    0.        0.        0.        0. 
 C(Fragment=2)         0.93561   15.65187   5.13165       H        38    0.        0.        0.        0. 
 C(Fragment=2)         3.35569   15.29802   5.13631 
 C(Fragment=2)         1.18013   17.06164   5.3106 
 C(Fragment=3)        -0.44691   15.09478   5.14381       H        35    0.        0.        0.        0. 
 C(Fragment=2)         3.5925    16.61237   5.43049 
 H(Fragment=2)         4.16581   14.58268   5.04363 
 C(Fragment=2)         0.13855   18.03014   5.27879 
 C(Fragment=2)         2.52005   17.54043   5.48091 
 C(Fragment=3)        -1.36178   15.35365   6.22658 
 C(Fragment=3)        -0.86799   14.25285   4.12204       H        32    0.        0.        0.        0. 
 H(Fragment=2)         4.60691   16.96482   5.59164 
 C(Fragment=2)         0.39864   19.37091   5.44454 
 H(Fragment=2)        -0.87897   17.70485   5.10456 
 C(Fragment=2)         2.75301   18.92688   5.67326 
 C(Fragment=3)        -0.97107   16.00808   7.42832 
 C(Fragment=3)        -2.71629   14.89025   6.13927 
 C(Fragment=3)        -2.21093   13.81007   4.03457 
 C(Fragment=2)         1.717     19.82923   5.66111 
 H(Fragment=2)        -0.41847   20.08424   5.4029 
 H(Fragment=2)         3.77536   19.26557   5.81539 
 C(Fragment=3)        -1.86589   16.23201   8.44869 
 H(Fragment=3)         0.05694   16.32389   7.54732 
 C(Fragment=3)        -3.62101   15.15853   7.19995 
 C(Fragment=3)        -3.11964   14.14297   5.00213 
 H(Fragment=3)        -2.48691   13.20127   3.18058 
 H(Fragment=2)         1.90826   20.88822   5.80073 
 C(Fragment=3)        -3.21233   15.82085   8.33159 
 H(Fragment=3)        -1.53141   16.72543   9.35581 
 H(Fragment=3)        -4.64656   14.81311   7.10542 
 H(Fragment=3)        -4.14986   13.80807   4.92701 
 H(Fragment=3)        -3.91145   16.01352   9.13884 
 
 ITRead=  0  0  0  0  0  0  0  0  0  0  0  0  0  0  0  0  0  0  0  0
 ITRead=  0  0  0  0  0  0  0  0  0  0  0  0  0  0  0  0  0  0  0  0
 ITRead=  0  0  0  0  0  0  0  0  0  0  0  0  0  0  0  0  0  0  0  0
 ITRead=  0  0  0  0  0
 MicOpt= -1 -1 -1 -1 -1 -1 -1 -1 -1 -1 -1 -1 -1 -1 -1 -1 -1 -1 -1 -1
 MicOpt= -1 -1 -1 -1 -1 -1 -1 -1 -1 -1 -1 -1 -1 -1 -1 -1 -1 -1 -1 -1
 MicOpt= -1 -1 -1 -1 -1 -1 -1 -1 -1 -1 -1 -1 -1 -1 -1 -1 -1 -1 -1 -1
 MicOpt= -1 -1 -1 -1 -1
 NAtoms=     65 NQM=       65 NQMF=       0 NMMI=      0 NMMIF=      0
                NMic=       0 NMicF=      0.
                    Isotopes and Nuclear Properties:
 (Nuclear quadrupole moments (NQMom) in fm**2, nuclear magnetic moments (NMagM)
  in nuclear magnetons)

  Atom         1           2           3           4           5           6           7           8           9          10
 IAtWgt=          12          11          14          12          12          12          12           1          14          12
 AtmWgt=  12.0000000  11.0093053  14.0030740  12.0000000  12.0000000  12.0000000  12.0000000   1.0078250  14.0030740  12.0000000
 NucSpn=           0           3           2           0           0           0           0           1           2           0
 AtZEff=   0.0000000   0.0000000   0.0000000   0.0000000   0.0000000   0.0000000   0.0000000   0.0000000   0.0000000   0.0000000
 NQMom=    0.0000000   4.0590000   2.0440000   0.0000000   0.0000000   0.0000000   0.0000000   0.0000000   2.0440000   0.0000000
 NMagM=    0.0000000   2.6886370   0.4037610   0.0000000   0.0000000   0.0000000   0.0000000   2.7928460   0.4037610   0.0000000
 AtZNuc=   6.0000000   5.0000000   7.0000000   6.0000000   6.0000000   6.0000000   6.0000000   1.0000000   7.0000000   6.0000000

  Atom        11          12          13          14          15          16          17          18          19          20
 IAtWgt=          12          12          12           1          12           1           1           1          12           1
 AtmWgt=  12.0000000  12.0000000  12.0000000   1.0078250  12.0000000   1.0078250   1.0078250   1.0078250  12.0000000   1.0078250
 NucSpn=           0           0           0           1           0           1           1           1           0           1
 AtZEff=   0.0000000   0.0000000   0.0000000   0.0000000   0.0000000   0.0000000   0.0000000   0.0000000   0.0000000   0.0000000
 NQMom=    0.0000000   0.0000000   0.0000000   0.0000000   0.0000000   0.0000000   0.0000000   0.0000000   0.0000000   0.0000000
 NMagM=    0.0000000   0.0000000   0.0000000   2.7928460   0.0000000   2.7928460   2.7928460   2.7928460   0.0000000   2.7928460
 AtZNuc=   6.0000000   6.0000000   6.0000000   1.0000000   6.0000000   1.0000000   1.0000000   1.0000000   6.0000000   1.0000000

  Atom        21          22          23          24          25          26          27          28          29          30
 IAtWgt=           1           1          12           1           1           1          12           1           1           1
 AtmWgt=   1.0078250   1.0078250  12.0000000   1.0078250   1.0078250   1.0078250  12.0000000   1.0078250   1.0078250   1.0078250
 NucSpn=           1           1           0           1           1           1           0           1           1           1
 AtZEff=   0.0000000   0.0000000   0.0000000   0.0000000   0.0000000   0.0000000   0.0000000   0.0000000   0.0000000   0.0000000
 NQMom=    0.0000000   0.0000000   0.0000000   0.0000000   0.0000000   0.0000000   0.0000000   0.0000000   0.0000000   0.0000000
 NMagM=    2.7928460   2.7928460   0.0000000   2.7928460   2.7928460   2.7928460   0.0000000   2.7928460   2.7928460   2.7928460
 AtZNuc=   1.0000000   1.0000000   6.0000000   1.0000000   1.0000000   1.0000000   6.0000000   1.0000000   1.0000000   1.0000000

  Atom        31          32          33          34          35          36          37          38          39          40
 IAtWgt=           1          16          16          12          12          12          12          12          12           1
 AtmWgt=   1.0078250  15.9949146  15.9949146  12.0000000  12.0000000  12.0000000  12.0000000  12.0000000  12.0000000   1.0078250
 NucSpn=           1           0           0           0           0           0           0           0           0           1
 AtZEff=   0.0000000   0.0000000   0.0000000   0.0000000   0.0000000   0.0000000   0.0000000   0.0000000   0.0000000   0.0000000
 NQMom=    0.0000000   0.0000000   0.0000000   0.0000000   0.0000000   0.0000000   0.0000000   0.0000000   0.0000000   0.0000000
 NMagM=    2.7928460   0.0000000   0.0000000   0.0000000   0.0000000   0.0000000   0.0000000   0.0000000   0.0000000   2.7928460
 AtZNuc=   1.0000000   8.0000000   8.0000000   6.0000000   6.0000000   6.0000000   6.0000000   6.0000000   6.0000000   1.0000000

  Atom        41          42          43          44          45          46          47          48          49          50
 IAtWgt=          12          12          12          12           1          12           1          12          12          12
 AtmWgt=  12.0000000  12.0000000  12.0000000  12.0000000   1.0078250  12.0000000   1.0078250  12.0000000  12.0000000  12.0000000
 NucSpn=           0           0           0           0           1           0           1           0           0           0
 AtZEff=   0.0000000   0.0000000   0.0000000   0.0000000   0.0000000   0.0000000   0.0000000   0.0000000   0.0000000   0.0000000
 NQMom=    0.0000000   0.0000000   0.0000000   0.0000000   0.0000000   0.0000000   0.0000000   0.0000000   0.0000000   0.0000000
 NMagM=    0.0000000   0.0000000   0.0000000   0.0000000   2.7928460   0.0000000   2.7928460   0.0000000   0.0000000   0.0000000
 AtZNuc=   6.0000000   6.0000000   6.0000000   6.0000000   1.0000000   6.0000000   1.0000000   6.0000000   6.0000000   6.0000000

  Atom        51          52          53          54          55          56          57          58          59          60
 IAtWgt=          12          12           1           1          12           1          12          12           1           1
 AtmWgt=  12.0000000  12.0000000   1.0078250   1.0078250  12.0000000   1.0078250  12.0000000  12.0000000   1.0078250   1.0078250
 NucSpn=           0           0           1           1           0           1           0           0           1           1
 AtZEff=   0.0000000   0.0000000   0.0000000   0.0000000   0.0000000   0.0000000   0.0000000   0.0000000   0.0000000   0.0000000
 NQMom=    0.0000000   0.0000000   0.0000000   0.0000000   0.0000000   0.0000000   0.0000000   0.0000000   0.0000000   0.0000000
 NMagM=    0.0000000   0.0000000   2.7928460   2.7928460   0.0000000   2.7928460   0.0000000   0.0000000   2.7928460   2.7928460
 AtZNuc=   6.0000000   6.0000000   1.0000000   1.0000000   6.0000000   1.0000000   6.0000000   6.0000000   1.0000000   1.0000000

  Atom        61          62          63          64          65
 IAtWgt=          12           1           1           1           1
 AtmWgt=  12.0000000   1.0078250   1.0078250   1.0078250   1.0078250
 NucSpn=           0           1           1           1           1
 AtZEff=   0.0000000   0.0000000   0.0000000   0.0000000   0.0000000
 NQMom=    0.0000000   0.0000000   0.0000000   0.0000000   0.0000000
 NMagM=    0.0000000   2.7928460   2.7928460   2.7928460   2.7928460
 AtZNuc=   6.0000000   1.0000000   1.0000000   1.0000000   1.0000000
 Leave Link  101 at Tue May  9 11:00:16 2017, MaxMem=  7340032000 cpu:               2.3 elap:               0.2
 (Enter /cm/shared/apps/gaussian/g16A03/g16/l202.exe)
 Symmetry turned off by external request.
 Stoichiometry    C33H27BN2O2
 Framework group  C1[X(C33H27BN2O2)]
 Deg. of freedom   189
 Full point group                 C1      NOp   1
                          Input orientation:                          
 ---------------------------------------------------------------------
 Center     Atomic      Atomic             Coordinates (Angstroms)
 Number     Number       Type             X           Y           Z
 ---------------------------------------------------------------------
      1          6           0        1.548264   10.553765    1.790179
      2          5           0        1.137124   13.009662    3.471666
      3          7           0        1.935066   12.929675    2.103412
      4          6           0        2.447627   13.941510    1.362125
      5          6           0        2.070961   11.756410    1.348974
      6          6           0        2.953385   13.426177    0.148865
      7          6           0        2.724297   12.059723    0.123812
      8          1           0        3.425374   14.020429   -0.621478
      9          7           0        0.768787   11.519047    3.876844
     10          6           0        0.907450   10.425426    3.009811
     11          6           0        0.262113   11.040840    5.041802
     12          6           0        0.435038    9.250829    3.654471
     13          6           0        0.040276    9.651392    4.920309
     14          1           0       -0.358670    9.024102    5.705577
     15          6           0        3.077337   11.090716   -0.961533
     16          1           0        3.812609   10.354046   -0.622814
     17          1           0        2.202918   10.534484   -1.312345
     18          1           0        3.503809   11.611177   -1.820489
     19          6           0        2.450268   15.381578    1.747006
     20          1           0        2.685205   15.992677    0.874508
     21          1           0        1.483230   15.690306    2.144143
     22          1           0        3.197762   15.595278    2.514938
     23          6           0        0.411855    7.868284    3.080505
     24          1           0       -0.163106    7.823930    2.150769
     25          1           0        1.419459    7.506199    2.853296
     26          1           0       -0.039365    7.165599    3.782776
     27          6           0       -0.009705   11.831399    6.278192
     28          1           0        0.786559   12.544118    6.483568
     29          1           0       -0.942045   12.395887    6.200232
     30          1           0       -0.107444   11.151354    7.126057
     31          1           0        1.657787    9.675670    1.163613
     32          8           0       -0.018989   13.840030    3.143103
     33          8           0        1.925618   13.510194    4.595523
     34          6           0        2.034487   14.820578    4.932168
     35          6           0        0.935610   15.651874    5.131653
     36          6           0        3.355693   15.298022    5.136313
     37          6           0        1.180128   17.061641    5.310596
     38          6           0       -0.446913   15.094779    5.143806
     39          6           0        3.592501   16.612373    5.430491
     40          1           0        4.165807   14.582681    5.043634
     41          6           0        0.138548   18.030137    5.278792
     42          6           0        2.520045   17.540430    5.480910
     43          6           0       -1.361781   15.353655    6.226578
     44          6           0       -0.867990   14.252845    4.122040
     45          1           0        4.606909   16.964820    5.591639
     46          6           0        0.398644   19.370913    5.444545
     47          1           0       -0.878965   17.704851    5.104555
     48          6           0        2.753012   18.926876    5.673256
     49          6           0       -0.971074   16.008082    7.428324
     50          6           0       -2.716294   14.890254    6.139270
     51          6           0       -2.210926   13.810069    4.034574
     52          6           0        1.717001   19.829229    5.661106
     53          1           0       -0.418467   20.084241    5.402898
     54          1           0        3.775358   19.265571    5.815389
     55          6           0       -1.865892   16.232005    8.448690
     56          1           0        0.056943   16.323887    7.547318
     57          6           0       -3.621008   15.158530    7.199945
     58          6           0       -3.119637   14.142966    5.002135
     59          1           0       -2.486913   13.201266    3.180579
     60          1           0        1.908262   20.888217    5.800726
     61          6           0       -3.212327   15.820848    8.331593
     62          1           0       -1.531414   16.725429    9.355807
     63          1           0       -4.646563   14.813115    7.105424
     64          1           0       -4.149859   13.808067    4.927014
     65          1           0       -3.911448   16.013518    9.138840
 ---------------------------------------------------------------------
 Rotational constants (GHZ):           0.1587204           0.0887905           0.0655534
 Leave Link  202 at Tue May  9 11:00:16 2017, MaxMem=  7340032000 cpu:               0.4 elap:               0.1
 (Enter /cm/shared/apps/gaussian/g16A03/g16/l122.exe)
 AddEET: Adding  6 ghost atoms, NAtomR=    65 NAtoms=    71
 EET: doing full-system calculation.
 Leave Link  122 at Tue May  9 11:00:16 2017, MaxMem=  7340032000 cpu:               0.1 elap:               0.0
 (Enter /cm/shared/apps/gaussian/g16A03/g16/l301.exe)
 Standard basis: 6-311+G(d,p) (5D, 7F)
 Ernie: Thresh=  0.10000D-02 Tol=  0.10000D-05 Strict=F.
  1034 basis functions,  1632 primitive gaussians,  1072 cartesian basis functions
   130 alpha electrons      130 beta electrons
       nuclear repulsion energy      4145.6507730576 Hartrees.
 IExCor= 1009 DFT=T Ex+Corr=PBE1PBE ExCW=0 ScaHFX=  0.250000
 ScaDFX=  0.750000  0.750000  1.000000  1.000000 ScalE2=  1.000000  1.000000
 IRadAn=      5 IRanWt=     -1 IRanGd=            0 ICorTp=0 IEmpDi=  4
 NAtoms=   71 NActive=   71 NUniq=   71 SFac= 1.00D+00 NAtFMM=   60 NAOKFM=T Big=T
 Integral buffers will be    131072 words long.
 Regular integral format.
 Two-electron integral symmetry is turned off.
 ------------------------------------------------------------------------------
 Polarizable Continuum Model (PCM)
 =================================
 Model                : PCM.
 Atomic radii         : UFF (Universal Force Field).
 Polarization charges : Total charges.
 Charge compensation  : None.
 Solution method      : On-the-fly selection.
 Cavity type          : Scaled VdW (van der Waals Surface) (Alpha=1.100).
 Cavity algorithm     : GePol (No added spheres)
                        Default sphere list used, NSphG=   71.
                        Lebedev-Laikov grids with approx.  5.0 points / Ang**2.
                        Smoothing algorithm: York/Karplus (Gamma=1.0000).
                        Polarization charges: spherical gaussians, with
                                              point-specific exponents (IZeta= 3).
                        Self-potential: point-specific (ISelfS= 7).
                        Self-field    : sphere-specific E.n sum rule (ISelfD= 2).
 Solvent              : Chloroform, Eps=   4.711300 Eps(inf)=   2.090627
 ------------------------------------------------------------------------------
 GePol: Number of generator spheres                  =      71
 GePol: Total number of spheres                      =      71
 GePol: Number of exposed spheres                    =      65 ( 91.55%)
 GePol: Number of points                             =    4355
 GePol: Average weight of points                     =       0.13
 GePol: Minimum weight of points                     =   0.97D-10
 GePol: Maximum weight of points                     =    0.20577
 GePol: Number of points with low weight             =     318
 GePol: Fraction of low-weight points (<1% of avg)   =       7.30%
 GePol: Cavity surface area                          =    547.342 Ang**2
 GePol: Cavity volume                                =    661.082 Ang**3
 Leave Link  301 at Tue May  9 11:00:16 2017, MaxMem=  7340032000 cpu:               2.4 elap:               0.2
 (Enter /cm/shared/apps/gaussian/g16A03/g16/l302.exe)
 NPDir=0 NMtPBC=     1 NCelOv=     1 NCel=       1 NClECP=     1 NCelD=      1
         NCelK=      1 NCelE2=     1 NClLst=     1 CellRange=     0.0.
 One-electron integrals computed using PRISM.
 NBasis=  1034 RedAO= T EigKep=  1.22D-06  NBF=  1034
 NBsUse=  1019 1.00D-06 EigRej=  7.49D-07 NBFU=  1019
 Precomputing XC quadrature grid using
 IXCGrd= 4 IRadAn=           5 IRanWt=          -1 IRanGd=           0 AccXCQ= 0.00D+00.
 Generated NRdTot=       0 NPtTot=           0 NUsed=           0 NTot=          32
 NSgBfM=  1037  1036  1037  1037  1037 MxSgAt=    71 MxSgA2=    71.
 Leave Link  302 at Tue May  9 11:00:20 2017, MaxMem=  7340032000 cpu:              60.7 elap:               3.9
 (Enter /cm/shared/apps/gaussian/g16A03/g16/l303.exe)
 DipDrv:  MaxL=1.
 Leave Link  303 at Tue May  9 11:00:21 2017, MaxMem=  7340032000 cpu:               3.8 elap:               0.3
 (Enter /cm/shared/apps/gaussian/g16A03/g16/l308.exe)
 Leave Link  308 at Tue May  9 11:00:21 2017, MaxMem=  7340032000 cpu:               5.8 elap:               0.5
 (Enter /cm/shared/apps/gaussian/g16A03/g16/l401.exe)
 ExpMin= 3.15D-02 ExpMax= 8.59D+03 ExpMxC= 1.30D+03 IAcc=3 IRadAn=         5 AccDes= 0.00D+00
 Harris functional with IExCor= 1009 and IRadAn=       5 diagonalized for initial guess.
 HarFok:  IExCor= 1009 AccDes= 0.00D+00 IRadAn=         5 IDoV= 1 UseB2=F ITyADJ=14
 ICtDFT=  3500011 ScaDFX=  1.000000  1.000000  1.000000  1.000000
 FoFCou: FMM=F IPFlag=           0 FMFlag=      100000 FMFlg1=        2001
         NFxFlg=           0 DoJE=T BraDBF=F KetDBF=T FulRan=T
         wScrn=  0.000000 ICntrl=       500 IOpCl=  0 I1Cent=   200000004 NGrid=           0
         NMat0=    1 NMatS0=      1 NMatT0=    0 NMatD0=    1 NMtDS0=    0 NMtDT0=    0
 Symmetry not used in FoFCou.
 Harris En= -1557.76551195224    
 JPrj=0 DoOrth=F DoCkMO=F.
 Leave Link  401 at Tue May  9 11:00:39 2017, MaxMem=  7340032000 cpu:             285.6 elap:              18.0
 (Enter /cm/shared/apps/gaussian/g16A03/g16/l601.exe)
 Copying SCF densities to generalized density rwf, IOpCl= 0 IROHF=0.

 **********************************************************************

            Population analysis using the SCF density.

 **********************************************************************

 Alpha  occ. eigenvalues --  -18.92405 -18.92346 -14.15658 -14.15587 -10.10329
 Alpha  occ. eigenvalues --  -10.10321 -10.10311 -10.10309 -10.09040 -10.09039
 Alpha  occ. eigenvalues --  -10.09036 -10.09031 -10.09003 -10.09001 -10.08989
 Alpha  occ. eigenvalues --  -10.08984 -10.08939 -10.08926 -10.08925 -10.08923
 Alpha  occ. eigenvalues --  -10.08920 -10.08767 -10.08761 -10.08026 -10.08009
 Alpha  occ. eigenvalues --  -10.07788 -10.07773 -10.07726 -10.07722 -10.07513
 Alpha  occ. eigenvalues --  -10.07459 -10.07404 -10.07359 -10.06953 -10.06949
 Alpha  occ. eigenvalues --  -10.06456 -10.06413  -6.64357  -1.08350  -1.05450
 Alpha  occ. eigenvalues --   -1.01209  -1.00042  -0.94652  -0.93934  -0.89843
 Alpha  occ. eigenvalues --   -0.89245  -0.86785  -0.86618  -0.86391  -0.86036
 Alpha  occ. eigenvalues --   -0.83608  -0.82486  -0.81640  -0.81205  -0.81070
 Alpha  occ. eigenvalues --   -0.80460  -0.78536  -0.78404  -0.78155  -0.74149
 Alpha  occ. eigenvalues --   -0.72250  -0.70704  -0.70543  -0.69487  -0.69115
 Alpha  occ. eigenvalues --   -0.68810  -0.66510  -0.65976  -0.64015  -0.63888
 Alpha  occ. eigenvalues --   -0.61812  -0.61634  -0.61601  -0.60859  -0.59771
 Alpha  occ. eigenvalues --   -0.59649  -0.59397  -0.58491  -0.56622  -0.55805
 Alpha  occ. eigenvalues --   -0.55447  -0.54702  -0.53419  -0.53320  -0.53240
 Alpha  occ. eigenvalues --   -0.52535  -0.52152  -0.52014  -0.52006  -0.51828
 Alpha  occ. eigenvalues --   -0.51544  -0.51417  -0.51068  -0.50613  -0.50592
 Alpha  occ. eigenvalues --   -0.50465  -0.50079  -0.49762  -0.48942  -0.48562
 Alpha  occ. eigenvalues --   -0.48418  -0.48330  -0.48123  -0.47380  -0.46939
 Alpha  occ. eigenvalues --   -0.46600  -0.46387  -0.46272  -0.45944  -0.45839
 Alpha  occ. eigenvalues --   -0.45577  -0.45224  -0.44482  -0.44407  -0.43446
 Alpha  occ. eigenvalues --   -0.43069  -0.41790  -0.40261  -0.39561  -0.38157
 Alpha  occ. eigenvalues --   -0.37732  -0.37218  -0.36694  -0.33950  -0.33856
 Alpha  occ. eigenvalues --   -0.33538  -0.33075  -0.32091  -0.30105  -0.28968
 Alpha virt. eigenvalues --   -0.22021  -0.19901  -0.19021  -0.16193  -0.15983
 Alpha virt. eigenvalues --   -0.13763  -0.12178  -0.10994  -0.09890  -0.08135
 Alpha virt. eigenvalues --   -0.06917  -0.06655  -0.05437  -0.04862  -0.04628
 Alpha virt. eigenvalues --   -0.03824  -0.03771  -0.03573  -0.03451  -0.03366
 Alpha virt. eigenvalues --   -0.02887  -0.02530  -0.02309  -0.01690  -0.01314
 Alpha virt. eigenvalues --   -0.01201  -0.00786  -0.00584  -0.00407  -0.00143
 Alpha virt. eigenvalues --    0.00155   0.00233   0.00464   0.00891   0.01245
 Alpha virt. eigenvalues --    0.01262   0.01401   0.01482   0.01654   0.02236
 Alpha virt. eigenvalues --    0.02349   0.02454   0.02579   0.02714   0.03051
 Alpha virt. eigenvalues --    0.03126   0.03255   0.03493   0.03837   0.03981
 Alpha virt. eigenvalues --    0.04201   0.04325   0.04506   0.04685   0.04909
 Alpha virt. eigenvalues --    0.05134   0.05221   0.05389   0.05614   0.05730
 Alpha virt. eigenvalues --    0.06084   0.06273   0.06573   0.06650   0.06928
 Alpha virt. eigenvalues --    0.07013   0.07164   0.07459   0.07874   0.08224
 Alpha virt. eigenvalues --    0.08338   0.08492   0.08587   0.08726   0.08908
 Alpha virt. eigenvalues --    0.08990   0.09088   0.09276   0.09381   0.09652
 Alpha virt. eigenvalues --    0.09879   0.09952   0.09991   0.10262   0.10499
 Alpha virt. eigenvalues --    0.10578   0.10732   0.11036   0.11337   0.11401
 Alpha virt. eigenvalues --    0.11670   0.11792   0.11928   0.12180   0.12434
 Alpha virt. eigenvalues --    0.12498   0.12575   0.12810   0.13022   0.13269
 Alpha virt. eigenvalues --    0.13316   0.13470   0.13622   0.13772   0.13863
 Alpha virt. eigenvalues --    0.14082   0.14331   0.14521   0.14532   0.14750
 Alpha virt. eigenvalues --    0.14965   0.14995   0.15060   0.15129   0.15170
 Alpha virt. eigenvalues --    0.15357   0.15527   0.15620   0.15773   0.15992
 Alpha virt. eigenvalues --    0.16025   0.16344   0.16468   0.16874   0.16961
 Alpha virt. eigenvalues --    0.17107   0.17226   0.17540   0.17676   0.17711
 Alpha virt. eigenvalues --    0.17862   0.18128   0.18141   0.18734   0.18947
 Alpha virt. eigenvalues --    0.19112   0.19384   0.19480   0.19687   0.19723
 Alpha virt. eigenvalues --    0.19963   0.20118   0.20259   0.20400   0.20521
 Alpha virt. eigenvalues --    0.20658   0.20850   0.21031   0.21426   0.21540
 Alpha virt. eigenvalues --    0.21625   0.21867   0.22025   0.22125   0.22336
 Alpha virt. eigenvalues --    0.22548   0.22697   0.22786   0.22929   0.23375
 Alpha virt. eigenvalues --    0.23536   0.23796   0.23978   0.23984   0.24198
 Alpha virt. eigenvalues --    0.24485   0.24786   0.24955   0.25275   0.25568
 Alpha virt. eigenvalues --    0.25696   0.25911   0.26047   0.26152   0.26431
 Alpha virt. eigenvalues --    0.26609   0.26873   0.27038   0.27190   0.27592
 Alpha virt. eigenvalues --    0.28153   0.28455   0.28678   0.28959   0.29084
 Alpha virt. eigenvalues --    0.29593   0.29833   0.30095   0.30468   0.30667
 Alpha virt. eigenvalues --    0.30820   0.30886   0.31297   0.31811   0.31949
 Alpha virt. eigenvalues --    0.32345   0.32448   0.32753   0.32928   0.33279
 Alpha virt. eigenvalues --    0.33644   0.33932   0.34013   0.34320   0.34429
 Alpha virt. eigenvalues --    0.34623   0.34930   0.35267   0.35592   0.35955
 Alpha virt. eigenvalues --    0.36225   0.36262   0.36466   0.36900   0.37010
 Alpha virt. eigenvalues --    0.37834   0.38039   0.38501   0.39058   0.39187
 Alpha virt. eigenvalues --    0.39563   0.39863   0.40419   0.40641   0.40804
 Alpha virt. eigenvalues --    0.41429   0.41638   0.41998   0.42314   0.42457
 Alpha virt. eigenvalues --    0.42834   0.42962   0.43309   0.43959   0.44469
 Alpha virt. eigenvalues --    0.44773   0.45055   0.45344   0.45613   0.45768
 Alpha virt. eigenvalues --    0.46076   0.46267   0.46782   0.47239   0.47666
 Alpha virt. eigenvalues --    0.48230   0.48374   0.48792   0.49123   0.49273
 Alpha virt. eigenvalues --    0.49562   0.49846   0.50175   0.50451   0.50844
 Alpha virt. eigenvalues --    0.50915   0.51360   0.51542   0.51915   0.52061
 Alpha virt. eigenvalues --    0.52261   0.52583   0.52871   0.53274   0.53424
 Alpha virt. eigenvalues --    0.54110   0.54517   0.54706   0.55097   0.55375
 Alpha virt. eigenvalues --    0.55515   0.55920   0.56022   0.56297   0.56355
 Alpha virt. eigenvalues --    0.56547   0.56774   0.56965   0.57028   0.57258
 Alpha virt. eigenvalues --    0.57591   0.57736   0.58070   0.58219   0.58401
 Alpha virt. eigenvalues --    0.58655   0.58666   0.58989   0.59334   0.59439
 Alpha virt. eigenvalues --    0.59598   0.59634   0.60074   0.60400   0.60512
 Alpha virt. eigenvalues --    0.60759   0.61299   0.61790   0.62134   0.62185
 Alpha virt. eigenvalues --    0.62682   0.62987   0.63285   0.63788   0.64143
 Alpha virt. eigenvalues --    0.64261   0.64595   0.65097   0.65151   0.65698
 Alpha virt. eigenvalues --    0.65791   0.66181   0.66794   0.67250   0.67444
 Alpha virt. eigenvalues --    0.67926   0.68406   0.68559   0.69084   0.69494
 Alpha virt. eigenvalues --    0.69702   0.70587   0.70879   0.71672   0.71918
 Alpha virt. eigenvalues --    0.72191   0.72738   0.73423   0.73640   0.73906
 Alpha virt. eigenvalues --    0.74205   0.74303   0.75506   0.75585   0.76086
 Alpha virt. eigenvalues --    0.76483   0.76742   0.77081   0.77707   0.78286
 Alpha virt. eigenvalues --    0.78643   0.79115   0.79606   0.79928   0.80354
 Alpha virt. eigenvalues --    0.80694   0.80927   0.81325   0.82053   0.82303
 Alpha virt. eigenvalues --    0.82586   0.82977   0.83776   0.84151   0.84503
 Alpha virt. eigenvalues --    0.84956   0.85017   0.85578   0.85739   0.86037
 Alpha virt. eigenvalues --    0.86588   0.86719   0.87035   0.87529   0.87991
 Alpha virt. eigenvalues --    0.88379   0.88643   0.89134   0.89625   0.89977
 Alpha virt. eigenvalues --    0.90294   0.90898   0.90955   0.91236   0.91447
 Alpha virt. eigenvalues --    0.91794   0.92432   0.93325   0.93455   0.94059
 Alpha virt. eigenvalues --    0.94383   0.94671   0.95094   0.95638   0.95658
 Alpha virt. eigenvalues --    0.95874   0.96736   0.96980   0.97431   0.97626
 Alpha virt. eigenvalues --    0.97960   0.98598   0.99427   0.99498   1.00411
 Alpha virt. eigenvalues --    1.00829   1.01770   1.01985   1.02229   1.02795
 Alpha virt. eigenvalues --    1.03147   1.03520   1.04107   1.04687   1.05733
 Alpha virt. eigenvalues --    1.06089   1.06879   1.07520   1.08268   1.09259
 Alpha virt. eigenvalues --    1.09896   1.10730   1.11918   1.12670   1.13196
 Alpha virt. eigenvalues --    1.14723   1.14945   1.16218   1.17073   1.18196
 Alpha virt. eigenvalues --    1.18755   1.19676   1.20253   1.20585   1.21028
 Alpha virt. eigenvalues --    1.22055   1.22742   1.23305   1.23437   1.23964
 Alpha virt. eigenvalues --    1.24210   1.25424   1.26216   1.26582   1.27251
 Alpha virt. eigenvalues --    1.27671   1.28977   1.29531   1.29818   1.30360
 Alpha virt. eigenvalues --    1.30672   1.30873   1.31294   1.31464   1.32334
 Alpha virt. eigenvalues --    1.32804   1.33264   1.33526   1.34114   1.34251
 Alpha virt. eigenvalues --    1.34702   1.34915   1.35503   1.35762   1.36465
 Alpha virt. eigenvalues --    1.36701   1.37210   1.37773   1.38235   1.38559
 Alpha virt. eigenvalues --    1.39090   1.39867   1.40362   1.40777   1.41014
 Alpha virt. eigenvalues --    1.41059   1.41223   1.41785   1.42167   1.42767
 Alpha virt. eigenvalues --    1.42994   1.43518   1.43690   1.44148   1.44287
 Alpha virt. eigenvalues --    1.44880   1.45269   1.45572   1.46043   1.46150
 Alpha virt. eigenvalues --    1.46944   1.47586   1.48176   1.48599   1.48730
 Alpha virt. eigenvalues --    1.49433   1.49707   1.50067   1.50218   1.50603
 Alpha virt. eigenvalues --    1.50828   1.51411   1.51917   1.52538   1.53042
 Alpha virt. eigenvalues --    1.53435   1.54166   1.54969   1.55187   1.55705
 Alpha virt. eigenvalues --    1.56719   1.57311   1.57722   1.57944   1.58106
 Alpha virt. eigenvalues --    1.58717   1.59347   1.59400   1.59641   1.60269
 Alpha virt. eigenvalues --    1.60633   1.61183   1.61602   1.62049   1.62498
 Alpha virt. eigenvalues --    1.63519   1.63652   1.63899   1.64103   1.64631
 Alpha virt. eigenvalues --    1.65490   1.65976   1.66890   1.67445   1.67788
 Alpha virt. eigenvalues --    1.68293   1.68971   1.69063   1.69372   1.70126
 Alpha virt. eigenvalues --    1.70523   1.70855   1.71304   1.71959   1.72975
 Alpha virt. eigenvalues --    1.73025   1.73627   1.73975   1.74835   1.75002
 Alpha virt. eigenvalues --    1.75423   1.75778   1.76049   1.76488   1.76842
 Alpha virt. eigenvalues --    1.77167   1.78084   1.78278   1.78407   1.79141
 Alpha virt. eigenvalues --    1.79681   1.80432   1.80890   1.80961   1.81656
 Alpha virt. eigenvalues --    1.82892   1.83283   1.83797   1.84274   1.85266
 Alpha virt. eigenvalues --    1.85737   1.85950   1.86501   1.87305   1.87580
 Alpha virt. eigenvalues --    1.88120   1.89162   1.89310   1.89739   1.91244
 Alpha virt. eigenvalues --    1.91364   1.91591   1.92114   1.92298   1.93040
 Alpha virt. eigenvalues --    1.93809   1.94111   1.94539   1.95299   1.96147
 Alpha virt. eigenvalues --    1.96820   1.97206   1.97538   1.98242   1.98947
 Alpha virt. eigenvalues --    1.99261   2.00427   2.00715   2.01180   2.01578
 Alpha virt. eigenvalues --    2.01947   2.02574   2.02983   2.05198   2.06605
 Alpha virt. eigenvalues --    2.07486   2.08302   2.09096   2.09863   2.10702
 Alpha virt. eigenvalues --    2.12188   2.12620   2.13810   2.14332   2.14534
 Alpha virt. eigenvalues --    2.15817   2.16262   2.17355   2.18921   2.19268
 Alpha virt. eigenvalues --    2.19841   2.20245   2.20938   2.22199   2.23099
 Alpha virt. eigenvalues --    2.23165   2.24214   2.24665   2.24851   2.25038
 Alpha virt. eigenvalues --    2.25508   2.25732   2.26745   2.27097   2.27647
 Alpha virt. eigenvalues --    2.28103   2.28579   2.29972   2.30765   2.31103
 Alpha virt. eigenvalues --    2.31759   2.32685   2.33039   2.33993   2.34277
 Alpha virt. eigenvalues --    2.34531   2.35158   2.35689   2.35865   2.36566
 Alpha virt. eigenvalues --    2.37041   2.38026   2.38141   2.39171   2.40382
 Alpha virt. eigenvalues --    2.41261   2.41699   2.42262   2.42618   2.44164
 Alpha virt. eigenvalues --    2.45172   2.45565   2.46943   2.47301   2.48727
 Alpha virt. eigenvalues --    2.49038   2.49850   2.50040   2.50569   2.50872
 Alpha virt. eigenvalues --    2.51285   2.51931   2.52711   2.53316   2.54512
 Alpha virt. eigenvalues --    2.55016   2.55298   2.55917   2.56343   2.56641
 Alpha virt. eigenvalues --    2.56690   2.56839   2.57141   2.57637   2.58426
 Alpha virt. eigenvalues --    2.58616   2.59341   2.60137   2.60380   2.60796
 Alpha virt. eigenvalues --    2.60961   2.61327   2.61695   2.62016   2.62292
 Alpha virt. eigenvalues --    2.62679   2.62975   2.63453   2.63812   2.64212
 Alpha virt. eigenvalues --    2.64555   2.65101   2.65407   2.66107   2.66352
 Alpha virt. eigenvalues --    2.67233   2.67625   2.67820   2.68649   2.68805
 Alpha virt. eigenvalues --    2.69555   2.70233   2.71147   2.71561   2.72449
 Alpha virt. eigenvalues --    2.72964   2.73726   2.74381   2.75163   2.75571
 Alpha virt. eigenvalues --    2.75803   2.77374   2.78119   2.78366   2.78800
 Alpha virt. eigenvalues --    2.79500   2.80329   2.81059   2.81443   2.81996
 Alpha virt. eigenvalues --    2.83228   2.83670   2.84628   2.85765   2.85978
 Alpha virt. eigenvalues --    2.87203   2.87582   2.88198   2.89580   2.90120
 Alpha virt. eigenvalues --    2.90840   2.92566   2.94865   2.95199   2.95836
 Alpha virt. eigenvalues --    2.97340   2.97729   2.98367   3.01822   3.02180
 Alpha virt. eigenvalues --    3.04959   3.06644   3.06908   3.08267   3.10534
 Alpha virt. eigenvalues --    3.11700   3.11781   3.12884   3.13708   3.14478
 Alpha virt. eigenvalues --    3.14953   3.15540   3.16846   3.18317   3.18461
 Alpha virt. eigenvalues --    3.21352   3.21676   3.23302   3.23719   3.25670
 Alpha virt. eigenvalues --    3.26354   3.30416   3.31914   3.32787   3.33507
 Alpha virt. eigenvalues --    3.33881   3.34805   3.35660   3.36482   3.37863
 Alpha virt. eigenvalues --    3.40851   3.43348   3.44647   3.47334   3.49195
 Alpha virt. eigenvalues --    3.49790   3.51126   3.53517   3.53880   3.56355
 Alpha virt. eigenvalues --    3.56589   3.56641   3.59251   3.60175   3.61452
 Alpha virt. eigenvalues --    3.62205   3.63490   3.64187   3.67488   3.67776
 Alpha virt. eigenvalues --    3.70867   3.74310   3.75600   3.77126   3.78523
 Alpha virt. eigenvalues --    3.80554   3.81201   3.81416   3.81727   3.82710
 Alpha virt. eigenvalues --    3.83759   3.84433   3.89497   3.90609   3.93310
 Alpha virt. eigenvalues --    3.93898   3.96546   3.98176   4.01294   4.01725
 Alpha virt. eigenvalues --    4.03197   4.06936   4.14241   4.15404   4.16538
 Alpha virt. eigenvalues --    4.18726   4.20357   4.26112   4.26928   4.28707
 Alpha virt. eigenvalues --    4.30234   4.34643   4.38361   4.42142   4.43657
 Alpha virt. eigenvalues --    4.46951   4.51724   4.59050   4.59916   4.65025
 Alpha virt. eigenvalues --    4.66308   4.75816   4.79121   4.82594   4.95077
 Alpha virt. eigenvalues --    4.98462   5.12310   5.19097   5.40568   6.07825
 Alpha virt. eigenvalues --    6.12034   6.24933   6.33607   6.83437   6.85680
 Alpha virt. eigenvalues --    8.43893   8.78602   8.88438   9.06006  14.46398
 Alpha virt. eigenvalues --   16.31940  16.34198  23.22870  23.25811  23.28290
 Alpha virt. eigenvalues --   23.38605  23.46532  23.48824  23.49234  23.50114
 Alpha virt. eigenvalues --   23.50276  23.51024  23.51512  23.52954  23.53814
 Alpha virt. eigenvalues --   23.57957  23.58188  23.59267  23.59620  23.62214
 Alpha virt. eigenvalues --   23.63902  23.65194  23.68149  23.68949  23.70253
 Alpha virt. eigenvalues --   23.72595  23.74485  23.74762  23.75592  23.76442
 Alpha virt. eigenvalues --   23.76527  26.45459  26.89399  26.97383  28.19394
 Alpha virt. eigenvalues --   35.20216  35.20877  52.23497  52.26659
          Condensed to atoms (all electrons):
 Mulliken charges:
               1
     1  C   -0.682174
     2  B    1.377367
     3  N    0.424495
     4  C   -0.070055
     5  C   -0.013524
     6  C    0.076288
     7  C    0.269197
     8  H    0.220891
     9  N    0.536398
    10  C   -0.226039
    11  C   -0.241099
    12  C    0.461198
    13  C    0.110309
    14  H    0.221026
    15  C   -0.947187
    16  H    0.314316
    17  H    0.299704
    18  H    0.287955
    19  C   -1.697436
    20  H    0.299785
    21  H    0.299791
    22  H    0.330163
    23  C   -0.894428
    24  H    0.306522
    25  H    0.308906
    26  H    0.288048
    27  C   -1.777784
    28  H    0.312622
    29  H    0.290261
    30  H    0.300141
    31  H    0.241985
    32  O   -1.838343
    33  O   -1.829803
    34  C    0.479447
    35  C   -0.613287
    36  C   -0.527924
    37  C    0.197637
    38  C   -0.533883
    39  C   -0.875510
    40  H    0.240604
    41  C   -0.398177
    42  C    0.525569
    43  C    0.222537
    44  C    0.532810
    45  H    0.234304
    46  C   -0.478803
    47  H    0.254717
    48  C   -0.127346
    49  C   -0.355040
    50  C    0.579787
    51  C   -0.446089
    52  C   -0.536536
    53  H    0.235934
    54  H    0.236637
    55  C   -0.438222
    56  H    0.260062
    57  C   -0.184591
    58  C   -0.836938
    59  H    0.240076
    60  H    0.241188
    61  C   -0.538544
    62  H    0.236087
    63  H    0.238185
    64  H    0.236019
    65  H    0.241061
    66  H    0.967813
    67  H    0.940534
    68  H    0.485858
    69  H    0.671147
    70  H    0.650105
    71  H    0.383277
 Sum of Mulliken charges =  -0.00000
 Mulliken charges with hydrogens summed into heavy atoms:
               1
     1  C   -0.440189
     2  B    1.377367
     3  N    0.424495
     4  C   -0.070055
     5  C   -0.013524
     6  C    0.297178
     7  C    0.269197
     9  N    0.536398
    10  C   -0.226039
    11  C   -0.241099
    12  C    0.461198
    13  C    0.331335
    15  C   -0.045212
    19  C   -0.767696
    23  C    0.009049
    27  C   -0.874760
    32  O   -0.870530
    33  O   -0.889270
    34  C    0.965305
    35  C    0.057859
    36  C   -0.287320
    37  C    0.197637
    38  C    0.116222
    39  C   -0.641207
    41  C   -0.143460
    42  C    0.525569
    43  C    0.222537
    44  C    0.916087
    46  C   -0.242869
    48  C    0.109291
    49  C   -0.094979
    50  C    0.579787
    51  C   -0.206013
    52  C   -0.295348
    55  C   -0.202135
    57  C    0.053594
    58  C   -0.600919
    61  C   -0.297483
         Mulliken charges condensed to fragments:
      1     -1.771369
      2      0.679091
      3      1.092277
 Electronic spatial extent (au):  <R**2>=         218075.7160
 Charge=             -0.0000 electrons
 Dipole moment (field-independent basis, Debye):
    X=              1.3346    Y=             -4.8746    Z=             -2.9293  Tot=              5.8416
 Quadrupole moment (field-independent basis, Debye-Ang):
   XX=           -161.3237   YY=           -290.0216   ZZ=           -193.0663
   XY=             23.4402   XZ=             -7.8275   YZ=            -46.4011
 Traceless Quadrupole moment (field-independent basis, Debye-Ang):
   XX=             53.4802   YY=            -75.2177   ZZ=             21.7376
   XY=             23.4402   XZ=             -7.8275   YZ=            -46.4011
 Octapole moment (field-independent basis, Debye-Ang**2):
  XXX=           -345.6246  YYY=          -9456.3750  ZZZ=          -2388.0264  XYY=            338.8376
  XXY=          -2232.9693  XXZ=           -681.8063  XZZ=           -174.8137  YZZ=          -2731.2890
  YYZ=          -1434.8518  XYZ=            -55.6768
 Hexadecapole moment (field-independent basis, Debye-Ang**3):
 XXXX=          -4177.9038 YYYY=        -249361.9045 ZZZZ=         -25496.1231 XXXY=          -4538.9382
 XXXZ=           -209.8072 YYYX=           4235.5601 YYYZ=         -42833.7912 ZZZX=           -840.1904
 ZZZY=         -35284.0907 XXYY=         -33044.3683 XXZZ=          -4318.5124 YYZZ=         -44022.5377
 XXYZ=          -9839.7768 YYXZ=            104.7401 ZZXY=          -2245.0210
 N-N= 4.145650773058D+03 E-N=-1.196056592904D+04  KE= 1.565449310217D+03
 Leave Link  601 at Tue May  9 11:00:40 2017, MaxMem=  7340032000 cpu:               3.6 elap:               0.5
 (Enter /cm/shared/apps/gaussian/g16A03/g16/l122.exe)
 CPIOFr:  IOpCl= 0 IRwI=-1 IRwCP=  731 ICalc= -1 LCPTot=     1639776 Len1MO=     3217434 IndFrg=     1639776
 CPIOFr:  IOpCl= 0 IRwI=-1 IRwCP=  731 ICalc=  0 LCPTot=     1639776 Len1MO=     3217434 IndFrg=     4857210
 AddEET: Adding  6 link atoms, NAtomR=    65 NAtoms=    71
 EET: doing calculation for fragment   1 using the basis set of the fragment.
 Leave Link  122 at Tue May  9 11:00:40 2017, MaxMem=  7340032000 cpu:               1.5 elap:               0.1
 (Enter /cm/shared/apps/gaussian/g16A03/g16/l301.exe)
 Basis read from rwf:  (5D, 7F)
 No pseudopotential information found on rwf file.
   498 basis functions,   784 primitive gaussians,   516 cartesian basis functions
    65 alpha electrons       65 beta electrons
       nuclear repulsion energy      1334.8990869509 Hartrees.
 IExCor= 1009 DFT=T Ex+Corr=PBE1PBE ExCW=0 ScaHFX=  0.250000
 ScaDFX=  0.750000  0.750000  1.000000  1.000000 ScalE2=  1.000000  1.000000
 IRadAn=      5 IRanWt=     -1 IRanGd=            0 ICorTp=0 IEmpDi=  4
 NAtoms=   71 NActive=   35 NUniq=   35 SFac= 1.00D+00 NAtFMM=   60 NAOKFM=F Big=F
 Integral buffers will be    131072 words long.
 Regular integral format.
 Two-electron integral symmetry is turned off.
 No density basis found on file   718.
 Leave Link  301 at Tue May  9 11:00:40 2017, MaxMem=  7340032000 cpu:               1.1 elap:               0.1
 (Enter /cm/shared/apps/gaussian/g16A03/g16/l302.exe)
 NPDir=0 NMtPBC=     1 NCelOv=     1 NCel=       1 NClECP=     1 NCelD=      1
         NCelK=      1 NCelE2=     1 NClLst=     1 CellRange=     0.0.
 One-electron integrals computed using PRISM.
 NBasis=   498 RedAO= T EigKep=  2.50D-06  NBF=   498
 NBsUse=   494 1.00D-06 EigRej=  6.43D-07 NBFU=   494
 Precomputing XC quadrature grid using
 IXCGrd= 4 IRadAn=           5 IRanWt=          -1 IRanGd=           0 AccXCQ= 0.00D+00.
 Generated NRdTot=       0 NPtTot=           0 NUsed=           0 NTot=          32
 NSgBfM=   516   516   516   516   516 MxSgAt=    35 MxSgA2=    35.
 Leave Link  302 at Tue May  9 11:00:41 2017, MaxMem=  7340032000 cpu:              12.6 elap:               0.8
 (Enter /cm/shared/apps/gaussian/g16A03/g16/l303.exe)
 DipDrv:  MaxL=1.
 Leave Link  303 at Tue May  9 11:00:41 2017, MaxMem=  7340032000 cpu:               1.1 elap:               0.1
 (Enter /cm/shared/apps/gaussian/g16A03/g16/l308.exe)
 Leave Link  308 at Tue May  9 11:00:41 2017, MaxMem=  7340032000 cpu:               1.5 elap:               0.1
 (Enter /cm/shared/apps/gaussian/g16A03/g16/l401.exe)
 ExpMin= 3.15D-02 ExpMax= 8.59D+03 ExpMxC= 1.30D+03 IAcc=3 IRadAn=         5 AccDes= 0.00D+00
 Harris functional with IExCor= 1009 and IRadAn=       5 diagonalized for initial guess.
 HarFok:  IExCor= 1009 AccDes= 0.00D+00 IRadAn=         5 IDoV= 1 UseB2=F ITyADJ=14
 ICtDFT=  3500011 ScaDFX=  1.000000  1.000000  1.000000  1.000000
 FoFCou: FMM=F IPFlag=           0 FMFlag=      100000 FMFlg1=           0
         NFxFlg=           0 DoJE=T BraDBF=F KetDBF=T FulRan=T
         wScrn=  0.000000 ICntrl=       500 IOpCl=  0 I1Cent=   200000004 NGrid=           0
         NMat0=    1 NMatS0=      1 NMatT0=    0 NMatD0=    1 NMtDS0=    0 NMtDT0=    0
 Symmetry not used in FoFCou.
 Harris En= -790.143851120481    
 JPrj=0 DoOrth=F DoCkMO=F.
 Leave Link  401 at Tue May  9 11:00:45 2017, MaxMem=  7340032000 cpu:              65.0 elap:               4.1
 (Enter /cm/shared/apps/gaussian/g16A03/g16/l502.exe)
 Two-electron integral symmetry not used.
 Closed shell SCF:
 Using DIIS extrapolation, IDIIS=  1040.
 NGot=  7340032000 LenX=  7339486847 LenY=  7339220075
 Requested convergence on RMS density matrix=1.00D-08 within 128 cycles.
 Requested convergence on MAX density matrix=1.00D-06.
 Requested convergence on             energy=1.00D-06.
 No special actions if energy rises.
 Fock matrices will be formed incrementally for  20 cycles.

 Cycle   1  Pass 1  IDiag  1:
 FoFJK:  IHMeth= 1 ICntrl=       0 DoSepK=F KAlg= 0 I1Cent=           0 FoldK=F
 IRaf= 830000000 NMat=       1 IRICut=       1 DoRegI=T DoRafI=F ISym2E= 0 IDoP0=0 IntGTp=1.
 FoFCou: FMM=F IPFlag=           0 FMFlag=      100000 FMFlg1=           0
         NFxFlg=           0 DoJE=F BraDBF=F KetDBF=F FulRan=T
         wScrn=  0.000000 ICntrl=         0 IOpCl=  0 I1Cent=           0 NGrid=           0
         NMat0=    1 NMatS0=      1 NMatT0=    0 NMatD0=    1 NMtDS0=    0 NMtDT0=    0
 Symmetry not used in FoFCou.
 Inv3:  Mode=1 IEnd=    56898075.
 Iteration    1 A*A^-1 deviation from unit magnitude is 1.22D-14 for    810.
 Iteration    1 A*A^-1 deviation from orthogonality  is 4.13D-15 for   3278    800.
 Iteration    1 A^-1*A deviation from unit magnitude is 1.29D-14 for    810.
 Iteration    1 A^-1*A deviation from orthogonality  is 6.25D-15 for   2079   2042.
 E= -789.371242708248    
 DIIS: error= 3.12D-02 at cycle   1 NSaved=   1.
 NSaved= 1 IEnMin= 1 EnMin= -789.371242708248     IErMin= 1 ErrMin= 3.12D-02
 ErrMax= 3.12D-02  0.00D+00 EMaxC= 1.00D-01 BMatC= 6.22D-01 BMatP= 6.22D-01
 IDIUse=3 WtCom= 6.88D-01 WtEn= 3.12D-01
 Coeff-Com:  0.100D+01
 Coeff-En:   0.100D+01
 Coeff:      0.100D+01
 Gap=     0.126 Goal=   None    Shift=    0.000
 GapD=    0.126 DampG=1.000 DampE=0.500 DampFc=0.5000 IDamp=-1.
 Damping current iteration by 5.00D-01
 RMSDP=2.71D-02 MaxDP=2.13D+00              OVMax= 2.14D-01

 Cycle   2  Pass 1  IDiag  1:
 RMSU=  1.27D-02    CP:  1.20D+00
 E= -789.588666084763     Delta-E=       -0.217423376515 Rises=F Damp=T
 DIIS: error= 5.35D-03 at cycle   2 NSaved=   2.
 NSaved= 2 IEnMin= 2 EnMin= -789.588666084763     IErMin= 2 ErrMin= 5.35D-03
 ErrMax= 5.35D-03  0.00D+00 EMaxC= 1.00D-01 BMatC= 4.01D-02 BMatP= 6.22D-01
 IDIUse=3 WtCom= 9.46D-01 WtEn= 5.35D-02
 Coeff-Com:  0.627D-01 0.937D+00
 Coeff-En:   0.123D+00 0.877D+00
 Coeff:      0.659D-01 0.934D+00
 Gap=     0.224 Goal=   None    Shift=    0.000
 RMSDP=9.91D-03 MaxDP=8.60D-01 DE=-2.17D-01 OVMax= 1.42D-01

 Cycle   3  Pass 1  IDiag  1:
 RMSU=  2.69D-03    CP:  1.00D+00  3.39D-01
 E= -789.850090833000     Delta-E=       -0.261424748237 Rises=F Damp=F
 DIIS: error= 6.89D-03 at cycle   3 NSaved=   3.
 NSaved= 3 IEnMin= 3 EnMin= -789.850090833000     IErMin= 2 ErrMin= 5.35D-03
 ErrMax= 6.89D-03  0.00D+00 EMaxC= 1.00D-01 BMatC= 2.75D-02 BMatP= 4.01D-02
 IDIUse=3 WtCom= 9.31D-01 WtEn= 6.89D-02
 Coeff-Com: -0.297D-01 0.445D+00 0.585D+00
 Coeff-En:   0.000D+00 0.000D+00 0.100D+01
 Coeff:     -0.277D-01 0.414D+00 0.613D+00
 Gap=     0.120 Goal=   None    Shift=    0.000
 RMSDP=1.91D-03 MaxDP=1.18D-01 DE=-2.61D-01 OVMax= 3.53D-02

 Cycle   4  Pass 1  IDiag  1:
 RMSU=  8.65D-04    CP:  1.02D+00  4.65D-01  8.87D-01
 E= -789.866938957141     Delta-E=       -0.016848124142 Rises=F Damp=F
 DIIS: error= 2.83D-03 at cycle   4 NSaved=   4.
 NSaved= 4 IEnMin= 4 EnMin= -789.866938957141     IErMin= 4 ErrMin= 2.83D-03
 ErrMax= 2.83D-03  0.00D+00 EMaxC= 1.00D-01 BMatC= 4.49D-03 BMatP= 2.75D-02
 IDIUse=3 WtCom= 9.72D-01 WtEn= 2.83D-02
 Coeff-Com: -0.237D-01 0.881D-01 0.321D+00 0.615D+00
 Coeff-En:   0.000D+00 0.000D+00 0.144D+00 0.856D+00
 Coeff:     -0.231D-01 0.856D-01 0.316D+00 0.622D+00
 Gap=     0.120 Goal=   None    Shift=    0.000
 RMSDP=5.93D-04 MaxDP=3.63D-02 DE=-1.68D-02 OVMax= 2.19D-02

 Cycle   5  Pass 1  IDiag  1:
 RMSU=  3.45D-04    CP:  1.01D+00  4.44D-01  9.20D-01  6.65D-01
 E= -789.870227210159     Delta-E=       -0.003288253017 Rises=F Damp=F
 DIIS: error= 1.28D-03 at cycle   5 NSaved=   5.
 NSaved= 5 IEnMin= 5 EnMin= -789.870227210159     IErMin= 5 ErrMin= 1.28D-03
 ErrMax= 1.28D-03  0.00D+00 EMaxC= 1.00D-01 BMatC= 7.03D-04 BMatP= 4.49D-03
 IDIUse=3 WtCom= 9.87D-01 WtEn= 1.28D-02
 Coeff-Com: -0.134D-01 0.354D-01 0.172D+00 0.399D+00 0.407D+00
 Coeff-En:   0.000D+00 0.000D+00 0.000D+00 0.795D-01 0.921D+00
 Coeff:     -0.132D-01 0.349D-01 0.170D+00 0.395D+00 0.414D+00
 Gap=     0.120 Goal=   None    Shift=    0.000
 RMSDP=2.04D-04 MaxDP=2.05D-02 DE=-3.29D-03 OVMax= 8.17D-03

 Cycle   6  Pass 1  IDiag  1:
 RMSU=  9.34D-05    CP:  1.01D+00  4.34D-01  9.25D-01  7.02D-01  7.36D-01
 E= -789.870846576856     Delta-E=       -0.000619366698 Rises=F Damp=F
 DIIS: error= 1.60D-04 at cycle   6 NSaved=   6.
 NSaved= 6 IEnMin= 6 EnMin= -789.870846576856     IErMin= 6 ErrMin= 1.60D-04
 ErrMax= 1.60D-04  0.00D+00 EMaxC= 1.00D-01 BMatC= 1.34D-05 BMatP= 7.03D-04
 IDIUse=3 WtCom= 9.98D-01 WtEn= 1.60D-03
 Coeff-Com: -0.282D-02 0.464D-02 0.345D-01 0.952D-01 0.169D+00 0.699D+00
 Coeff-En:   0.000D+00 0.000D+00 0.000D+00 0.000D+00 0.000D+00 0.100D+01
 Coeff:     -0.282D-02 0.463D-02 0.345D-01 0.951D-01 0.169D+00 0.700D+00
 Gap=     0.120 Goal=   None    Shift=    0.000
 RMSDP=3.00D-05 MaxDP=2.83D-03 DE=-6.19D-04 OVMax= 1.34D-03

 Cycle   7  Pass 1  IDiag  1:
 RMSU=  2.02D-05    CP:  1.01D+00  4.35D-01  9.26D-01  7.06D-01  7.66D-01
                    CP:  8.86D-01
 E= -789.870857597338     Delta-E=       -0.000011020482 Rises=F Damp=F
 DIIS: error= 6.35D-05 at cycle   7 NSaved=   7.
 NSaved= 7 IEnMin= 7 EnMin= -789.870857597338     IErMin= 7 ErrMin= 6.35D-05
 ErrMax= 6.35D-05  0.00D+00 EMaxC= 1.00D-01 BMatC= 1.26D-06 BMatP= 1.34D-05
 IDIUse=1 WtCom= 1.00D+00 WtEn= 0.00D+00
 Coeff-Com: -0.871D-03 0.997D-03 0.106D-01 0.324D-01 0.686D-01 0.363D+00
 Coeff-Com:  0.526D+00
 Coeff:     -0.871D-03 0.997D-03 0.106D-01 0.324D-01 0.686D-01 0.363D+00
 Coeff:      0.526D+00
 Gap=     0.120 Goal=   None    Shift=    0.000
 RMSDP=9.97D-06 MaxDP=5.06D-04 DE=-1.10D-05 OVMax= 5.69D-04

 Cycle   8  Pass 1  IDiag  1:
 RMSU=  6.61D-06    CP:  1.01D+00  4.35D-01  9.26D-01  7.08D-01  7.63D-01
                    CP:  8.84D-01  8.12D-01
 E= -789.870858841697     Delta-E=       -0.000001244359 Rises=F Damp=F
 DIIS: error= 2.29D-05 at cycle   8 NSaved=   8.
 NSaved= 8 IEnMin= 8 EnMin= -789.870858841697     IErMin= 8 ErrMin= 2.29D-05
 ErrMax= 2.29D-05  0.00D+00 EMaxC= 1.00D-01 BMatC= 1.57D-07 BMatP= 1.26D-06
 IDIUse=1 WtCom= 1.00D+00 WtEn= 0.00D+00
 Coeff-Com:  0.145D-04-0.203D-03 0.422D-04 0.165D-02 0.844D-02 0.728D-01
 Coeff-Com:  0.277D+00 0.640D+00
 Coeff:      0.145D-04-0.203D-03 0.422D-04 0.165D-02 0.844D-02 0.728D-01
 Coeff:      0.277D+00 0.640D+00
 Gap=     0.120 Goal=   None    Shift=    0.000
 RMSDP=4.94D-06 MaxDP=3.90D-04 DE=-1.24D-06 OVMax= 1.81D-04

 Cycle   9  Pass 1  IDiag  1:
 RMSU=  2.98D-06    CP:  1.01D+00  4.35D-01  9.26D-01  7.10D-01  7.65D-01
                    CP:  8.91D-01  8.95D-01  8.24D-01
 E= -789.870858983165     Delta-E=       -0.000000141468 Rises=F Damp=F
 DIIS: error= 8.53D-06 at cycle   9 NSaved=   9.
 NSaved= 9 IEnMin= 9 EnMin= -789.870858983165     IErMin= 9 ErrMin= 8.53D-06
 ErrMax= 8.53D-06  0.00D+00 EMaxC= 1.00D-01 BMatC= 2.45D-08 BMatP= 1.57D-07
 IDIUse=1 WtCom= 1.00D+00 WtEn= 0.00D+00
 Coeff-Com:  0.874D-04-0.215D-03-0.952D-03-0.211D-02-0.187D-02 0.260D-02
 Coeff-Com:  0.101D+00 0.359D+00 0.543D+00
 Coeff:      0.874D-04-0.215D-03-0.952D-03-0.211D-02-0.187D-02 0.260D-02
 Coeff:      0.101D+00 0.359D+00 0.543D+00
 Gap=     0.120 Goal=   None    Shift=    0.000
 RMSDP=1.53D-06 MaxDP=1.03D-04 DE=-1.41D-07 OVMax= 5.49D-05

 Cycle  10  Pass 1  IDiag  1:
 RMSU=  7.05D-07    CP:  1.01D+00  4.35D-01  9.26D-01  7.09D-01  7.67D-01
                    CP:  8.93D-01  9.02D-01  8.66D-01  7.15D-01
 E= -789.870859007650     Delta-E=       -0.000000024485 Rises=F Damp=F
 DIIS: error= 1.35D-06 at cycle  10 NSaved=  10.
 NSaved=10 IEnMin=10 EnMin= -789.870859007650     IErMin=10 ErrMin= 1.35D-06
 ErrMax= 1.35D-06  0.00D+00 EMaxC= 1.00D-01 BMatC= 7.26D-10 BMatP= 2.45D-08
 IDIUse=1 WtCom= 1.00D+00 WtEn= 0.00D+00
 Coeff-Com:  0.288D-04-0.635D-04-0.365D-03-0.867D-03-0.109D-02-0.286D-02
 Coeff-Com:  0.240D-01 0.989D-01 0.212D+00 0.671D+00
 Coeff:      0.288D-04-0.635D-04-0.365D-03-0.867D-03-0.109D-02-0.286D-02
 Coeff:      0.240D-01 0.989D-01 0.212D+00 0.671D+00
 Gap=     0.120 Goal=   None    Shift=    0.000
 RMSDP=3.25D-07 MaxDP=2.70D-05 DE=-2.45D-08 OVMax= 1.21D-05

 Cycle  11  Pass 1  IDiag  1:
 RMSU=  1.95D-07    CP:  1.01D+00  4.35D-01  9.26D-01  7.09D-01  7.67D-01
                    CP:  8.94D-01  9.06D-01  8.73D-01  7.32D-01  9.47D-01
 E= -789.870859008323     Delta-E=       -0.000000000673 Rises=F Damp=F
 DIIS: error= 4.96D-07 at cycle  11 NSaved=  11.
 NSaved=11 IEnMin=11 EnMin= -789.870859008323     IErMin=11 ErrMin= 4.96D-07
 ErrMax= 4.96D-07  0.00D+00 EMaxC= 1.00D-01 BMatC= 1.34D-10 BMatP= 7.26D-10
 IDIUse=1 WtCom= 1.00D+00 WtEn= 0.00D+00
 Coeff-Com:  0.302D-05-0.379D-05-0.754D-04-0.189D-03-0.341D-03-0.182D-02
 Coeff-Com: -0.699D-03 0.342D-02 0.381D-01 0.333D+00 0.629D+00
 Coeff:      0.302D-05-0.379D-05-0.754D-04-0.189D-03-0.341D-03-0.182D-02
 Coeff:     -0.699D-03 0.342D-02 0.381D-01 0.333D+00 0.629D+00
 Gap=     0.120 Goal=   None    Shift=    0.000
 RMSDP=9.34D-08 MaxDP=5.61D-06 DE=-6.73D-10 OVMax= 4.49D-06

 Cycle  12  Pass 1  IDiag  1:
 RMSU=  6.41D-08    CP:  1.01D+00  4.35D-01  9.26D-01  7.09D-01  7.67D-01
                    CP:  8.94D-01  9.08D-01  8.75D-01  7.33D-01  1.00D+00
                    CP:  8.47D-01
 E= -789.870859008459     Delta-E=       -0.000000000136 Rises=F Damp=F
 DIIS: error= 1.05D-07 at cycle  12 NSaved=  12.
 NSaved=12 IEnMin=12 EnMin= -789.870859008459     IErMin=12 ErrMin= 1.05D-07
 ErrMax= 1.05D-07  0.00D+00 EMaxC= 1.00D-01 BMatC= 1.16D-11 BMatP= 1.34D-10
 IDIUse=1 WtCom= 1.00D+00 WtEn= 0.00D+00
 Coeff-Com: -0.184D-05 0.484D-05 0.732D-06 0.223D-05-0.624D-04-0.576D-03
 Coeff-Com: -0.287D-02-0.876D-02-0.271D-02 0.882D-01 0.282D+00 0.645D+00
 Coeff:     -0.184D-05 0.484D-05 0.732D-06 0.223D-05-0.624D-04-0.576D-03
 Coeff:     -0.287D-02-0.876D-02-0.271D-02 0.882D-01 0.282D+00 0.645D+00
 Gap=     0.120 Goal=   None    Shift=    0.000
 RMSDP=4.46D-08 MaxDP=2.62D-06 DE=-1.36D-10 OVMax= 2.53D-06

 Cycle  13  Pass 1  IDiag  1:
 RMSU=  2.44D-08    CP:  1.01D+00  4.35D-01  9.26D-01  7.09D-01  7.67D-01
                    CP:  8.94D-01  9.08D-01  8.75D-01  7.38D-01  1.02D+00
                    CP:  8.95D-01  7.92D-01
 E= -789.870859008488     Delta-E=       -0.000000000030 Rises=F Damp=F
 DIIS: error= 6.19D-08 at cycle  13 NSaved=  13.
 NSaved=13 IEnMin=13 EnMin= -789.870859008488     IErMin=13 ErrMin= 6.19D-08
 ErrMax= 6.19D-08  0.00D+00 EMaxC= 1.00D-01 BMatC= 2.37D-12 BMatP= 1.16D-11
 IDIUse=1 WtCom= 1.00D+00 WtEn= 0.00D+00
 Coeff-Com: -0.121D-05 0.287D-05 0.575D-05 0.160D-04-0.109D-04-0.152D-03
 Coeff-Com: -0.141D-02-0.484D-02-0.399D-02 0.194D-01 0.961D-01 0.371D+00
 Coeff-Com:  0.524D+00
 Coeff:     -0.121D-05 0.287D-05 0.575D-05 0.160D-04-0.109D-04-0.152D-03
 Coeff:     -0.141D-02-0.484D-02-0.399D-02 0.194D-01 0.961D-01 0.371D+00
 Coeff:      0.524D+00
 Gap=     0.120 Goal=   None    Shift=    0.000
 RMSDP=1.16D-08 MaxDP=7.56D-07 DE=-2.96D-11 OVMax= 1.19D-06

 Cycle  14  Pass 1  IDiag  1:
 RMSU=  9.55D-09    CP:  1.01D+00  4.35D-01  9.26D-01  7.09D-01  7.67D-01
                    CP:  8.94D-01  9.08D-01  8.75D-01  7.38D-01  1.03D+00
                    CP:  8.90D-01  8.49D-01  8.68D-01
 E= -789.870859008460     Delta-E=        0.000000000028 Rises=F Damp=F
 DIIS: error= 1.94D-08 at cycle  14 NSaved=  14.
 NSaved=14 IEnMin=13 EnMin= -789.870859008488     IErMin=14 ErrMin= 1.94D-08
 ErrMax= 1.94D-08  0.00D+00 EMaxC= 1.00D-01 BMatC= 2.40D-13 BMatP= 2.37D-12
 IDIUse=1 WtCom= 1.00D+00 WtEn= 0.00D+00
 Coeff-Com: -0.312D-06 0.721D-06 0.254D-05 0.741D-05 0.285D-06 0.408D-05
 Coeff-Com: -0.289D-03-0.122D-02-0.145D-02-0.360D-02 0.547D-02 0.999D-01
 Coeff-Com:  0.280D+00 0.622D+00
 Coeff:     -0.312D-06 0.721D-06 0.254D-05 0.741D-05 0.285D-06 0.408D-05
 Coeff:     -0.289D-03-0.122D-02-0.145D-02-0.360D-02 0.547D-02 0.999D-01
 Coeff:      0.280D+00 0.622D+00
 Gap=     0.120 Goal=   None    Shift=    0.000
 RMSDP=5.66D-09 MaxDP=5.06D-07 DE= 2.82D-11 OVMax= 3.94D-07

 Error on total polarization charges =  0.00861
 SCF Done:  E(RPBE1PBE) =  -789.870859008     A.U. after   14 cycles
            NFock= 14  Conv=0.57D-08     -V/T= 2.0043
 KE= 7.865160631989D+02 PE=-4.512369887468D+03 EE= 1.601083878309D+03
 Leave Link  502 at Tue May  9 11:04:31 2017, MaxMem=  7340032000 cpu:            3525.7 elap:             226.1
 (Enter /cm/shared/apps/gaussian/g16A03/g16/l801.exe)
 DoSCS=F DFT=T ScalE2(SS,OS)=  1.000000  1.000000
 ExpMin= 3.15D-02 ExpMax= 8.59D+03 ExpMxC= 1.30D+03 IAcc=3 IRadAn=         5 AccDes= 0.00D+00
 HarFok:  IExCor=  205 AccDes= 0.00D+00 IRadAn=         5 IDoV=-2 UseB2=F ITyADJ=14
 ICtDFT= 12500011 ScaDFX=  1.000000  1.000000  1.000000  1.000000
 Largest valence mixing into a core orbital is  8.83D-05
 Largest core mixing into a valence orbital is  1.98D-05
 Range of M.O.s used for correlation:    19   494
 NBasis=   498 NAE=    65 NBE=    65 NFC=    18 NFV=     0
 NROrb=    476 NOA=    47 NOB=    47 NVA=   429 NVB=   429

 **** Warning!!: The largest alpha MO coefficient is  0.93470168D+02

 Leave Link  801 at Tue May  9 11:04:32 2017, MaxMem=  7340032000 cpu:               3.7 elap:               0.3
 (Enter /cm/shared/apps/gaussian/g16A03/g16/l914.exe)
 RHF ground state
 Two-electron integral symmetry not used.
 MDV=  7340032000 DFT=T DoStab=F Mixed=T DoRPA=T DoScal=F NonHer=T
 NEqPCM:  Using non-equilibrium solvation (IEInf=1, Eps=   4.7113, EpsInf=   2.0906)
 Inv3:  Mode=1 IEnd=    56898075.
 Iteration    1 A*A^-1 deviation from unit magnitude is 1.15D-14 for    563.
 Iteration    1 A*A^-1 deviation from orthogonality  is 3.61D-15 for   3983    716.
 Iteration    1 A^-1*A deviation from unit magnitude is 1.02D-14 for   1354.
 Iteration    1 A^-1*A deviation from orthogonality  is 3.79D-15 for   3024   2279.
 Making orbital integer symmetry assigments:
    24 initial guesses have been made.
 Convergence on wavefunction:    0.001000000000000
 Davidson Disk Diagonalization:  ConvIn= 1.00D-03 SkipCon=T Conv= 1.00D-03.
 Max sub-space:  2000 roots to seek:    24 dimension of matrix:        40326
 Iteration     1 Dimension    24 NMult     0 NNew     24
 CISAX will form    24 AO SS matrices at one time.
 NMat=    24 NSing=    24 JSym2X= 0.
 FoFJK:  IHMeth= 1 ICntrl=       0 DoSepK=F KAlg= 0 I1Cent=           0 FoldK=F
 IRaf= 830000000 NMat=      48 IRICut=      60 DoRegI=T DoRafI=T ISym2E= 0 IDoP0=3 IntGTp=3.
 New state      5 was old state      6
 New state      6 was old state      7
 Excitation Energies [eV] at current iteration:
 Root      1 :     3.508559361340887
 Root      2 :     3.902537844826699
 Root      3 :     4.055524113058170
 Root      4 :     4.433412844477256
 Root      5 :     4.834937715043627
 Root      6 :     5.023032988797104
 Root      7 :     5.168085584790483
 Root      8 :     5.359009805319152
 Root      9 :     5.516505805983861
 Root     10 :     5.549630248939364
 Root     11 :     5.792395124102053
 Root     12 :     5.973855010383857
 Root     13 :     5.983976788869727
 Root     14 :     6.072811607437859
 Root     15 :     6.243105588531822
 Root     16 :     6.367567088417610
 Root     17 :     6.450457301123566
 Root     18 :     6.497059093116641
 Root     19 :     6.550335267214811
 Root     20 :     6.588333783192049
 Root     21 :     6.593481956169302
 Root     22 :     6.674367392529669
 Root     23 :     6.777482597628707
 Root     24 :     7.000565970743324
 Iteration     2 Dimension    36 NMult    24 NNew     12
 CISAX will form    12 AO SS matrices at one time.
 NMat=    12 NSing=    12 JSym2X= 0.
 Root      1 not converged, maximum delta is    0.145566097092973
 Root      2 not converged, maximum delta is    0.117418007884418
 Root      3 not converged, maximum delta is    0.240338131200483
 Root      4 not converged, maximum delta is    0.206881134158089
 Root      5 not converged, maximum delta is    0.042332313376739
 Root      6 not converged, maximum delta is    0.026180742188380
 Excitation Energies [eV] at current iteration:
 Root      1 :     2.897578459205441   Change is   -0.610980902135446
 Root      2 :     3.538382284782766   Change is   -0.364155560043933
 Root      3 :     3.730781219151867   Change is   -0.324742893906303
 Root      4 :     4.330554097500046   Change is   -0.102858746977210
 Root      5 :     4.783621844217425   Change is   -0.051315870826202
 Root      6 :     5.001773142192460   Change is   -0.021259846604644
 Iteration     3 Dimension    48 NMult    36 NNew     12
 CISAX will form    12 AO SS matrices at one time.
 NMat=    12 NSing=    12 JSym2X= 0.
 Root      1 not converged, maximum delta is    0.007029664987250
 Root      2 not converged, maximum delta is    0.005359796296793
 Root      3 not converged, maximum delta is    0.005158307944388
 Root      4 not converged, maximum delta is    0.004864043727630
 Root      5 not converged, maximum delta is    0.007381728045925
 Root      6 not converged, maximum delta is    0.001317787600915
 Excitation Energies [eV] at current iteration:
 Root      1 :     2.872279252886506   Change is   -0.025299206318935
 Root      2 :     3.529865134541534   Change is   -0.008517150241232
 Root      3 :     3.720940944584852   Change is   -0.009840274567015
 Root      4 :     4.328016322438326   Change is   -0.002537775061720
 Root      5 :     4.780743492530528   Change is   -0.002878351686897
 Root      6 :     5.001271293420291   Change is   -0.000501848772169
 Iteration     4 Dimension    60 NMult    48 NNew     12
 CISAX will form    12 AO SS matrices at one time.
 NMat=    12 NSing=    12 JSym2X= 0.
 Root      1 not converged, maximum delta is    0.003146822113166
 Root      2 has converged.
 Root      3 not converged, maximum delta is    0.002477851433097
 Root      4 not converged, maximum delta is    0.001257921967539
 Root      5 not converged, maximum delta is    0.001846123862277
 Root      6 has converged.
 Excitation Energies [eV] at current iteration:
 Root      1 :     2.869943756108919   Change is   -0.002335496777587
 Root      2 :     3.529085571335921   Change is   -0.000779563205614
 Root      3 :     3.719533661520388   Change is   -0.001407283064464
 Root      4 :     4.327769415981304   Change is   -0.000246906457022
 Root      5 :     4.780391226253426   Change is   -0.000352266277102
 Root      6 :     5.001207593395280   Change is   -0.000063700025011
 Iteration     5 Dimension    68 NMult    60 NNew      8
 CISAX will form     8 AO SS matrices at one time.
 NMat=     8 NSing=     8 JSym2X= 0.
 Root      1 has converged.
 Root      2 has converged.
 Root      3 has converged.
 Root      4 has converged.
 Root      5 has converged.
 Root      6 has converged.
 Excitation Energies [eV] at current iteration:
 Root      1 :     2.869810280479717   Change is   -0.000133475629202
 Root      2 :     3.529077139668115   Change is   -0.000008431667806
 Root      3 :     3.719425578994837   Change is   -0.000108082525551
 Root      4 :     4.327747273349875   Change is   -0.000022142631429
 Root      5 :     4.780354666102283   Change is   -0.000036560151143
 Root      6 :     5.001206640204009   Change is   -0.000000953191272
 Convergence achieved on expansion vectors.
 ***********************************************************************
 Excited states from <AA,BB:AA,BB> singles matrix:
 ***********************************************************************
 
 1PDM for each excited state written to RWF  633
 Ground to excited state transition densities written to RWF  633
 Ground to excited state transition electric dipole moments (Au):
       state          X           Y           Z        Dip. S.      Osc.
         1         1.3598      1.7296     -2.1882      9.6291      0.6770
         2         0.3546      0.4740     -0.5463      0.6488      0.0561
         3         0.1163     -0.6284     -0.4378      0.6001      0.0547
         4         0.0160     -0.2408     -0.1738      0.0885      0.0094
         5        -0.0201      0.1090     -0.0679      0.0169      0.0020
         6         0.0016      0.0246      0.0123      0.0008      0.0001
 Ground to excited state transition velocity dipole moments (Au):
       state          X           Y           Z        Dip. S.      Osc.
         1        -0.1414     -0.1796      0.2269      0.1037      0.6558
         2        -0.0458     -0.0620      0.0712      0.0110      0.0566
         3        -0.0161      0.0851      0.0594      0.0110      0.0539
         4        -0.0022      0.0372      0.0267      0.0021      0.0088
         5         0.0048     -0.0189      0.0117      0.0005      0.0020
         6        -0.0000     -0.0055     -0.0034      0.0000      0.0002
 Ground to excited state transition magnetic dipole moments (Au):
       state          X           Y           Z
         1         4.5555     -1.0159      2.0210
         2         2.9604     -0.6119      1.3240
         3         0.9178     -0.2053      0.6591
         4         0.4313     -0.1374      0.1237
         5         0.2299      0.0853     -0.1758
         6        -0.0103     -0.0958     -0.0971
 Ground to excited state transition velocity quadrupole moments (Au):
       state          XX          YY          ZZ          XY          XZ          YZ
         1        -0.7766     -8.0797      2.4015     -3.6606     -0.1174      4.1576
         2        -0.2972     -2.3258      0.3482     -1.0144      0.1259      1.1551
         3        -0.1171      3.5591      0.4214     -0.1537      0.1621      1.6348
         4        -0.0155      1.5800      0.2528      0.0910      0.0762      0.6676
         5         0.0268     -1.0532      0.2859      0.0345      0.0134      0.2393
         6         0.0346     -0.2611     -0.0909      0.0573     -0.0628     -0.1227
 <0|del|b> * <b|rxdel|0> + <0|del|b> * <b|delr+rdel|0>
 Rotatory Strengths (R) in cgs (10**-40 erg-esu-cm/Gauss)
       state          XX          YY          ZZ    R(velocity)    E-M Angle
         1      -706.4207    190.6132    493.6432     -7.3881       90.12
         2       184.8853    -59.7719   -143.0286     -5.9718       90.54
         3        -3.2144     18.3971     20.4188     11.8672       86.73
         4        -4.9184     -3.5253     -3.8837     -4.1092       97.41
         5        -6.0506     -0.4005     -3.8427     -3.4313      111.90
         6         0.6099      1.0143      1.6779      1.1007       14.34
 1/2[<0|r|b>*<b|rxdel|0> + (<0|rxdel|b>*<b|r|0>)*]
 Rotatory Strengths (R) in cgs (10**-40 erg-esu-cm/Gauss)
       state          XX          YY          ZZ     R(length)
         1     -4380.5741   1242.6280   3127.3053     -3.5469
         2      -742.3905    205.1034    511.4482     -8.6130
         3       -75.4577    -91.2493    204.0670     12.4533
         4        -4.8879    -23.4032     15.2040     -4.3624
         5         3.2664     -6.5695     -8.4459     -3.9163
         6         0.0116      1.6676      0.8442      0.8411
  1/2[<0|del|b>*<b|r|0> + (<0|r|b>*<b|del|0>)*] (Au)
       state          X           Y           Z        Dip. S.   Osc.(frdel)
         1        -0.1923     -0.3106     -0.4965      0.9995      0.6663
         2        -0.0162     -0.0294     -0.0389      0.0845      0.0563
         3        -0.0019     -0.0535     -0.0260      0.0814      0.0543
         4        -0.0000     -0.0090     -0.0046      0.0136      0.0091
         5        -0.0001     -0.0021     -0.0008      0.0029      0.0020
         6        -0.0000     -0.0001     -0.0000      0.0002      0.0001

 Excitation energies and oscillator strengths:
 
 Excited state symmetry could not be determined.
 Excited State   1:      Singlet-?Sym    2.8698 eV  432.03 nm  f=0.6770  <S**2>=0.000
      65 -> 66         0.70251
 This state for optimization and/or second-order correction.
 Total Energy, E(TD-HF/TD-DFT) =  -789.765395421    
 Copying the excited state density for this state as the 1-particle RhoCI density.
 
 Excited state symmetry could not be determined.
 Excited State   2:      Singlet-?Sym    3.5291 eV  351.32 nm  f=0.0561  <S**2>=0.000
      64 -> 66         0.69862
 
 Excited state symmetry could not be determined.
 Excited State   3:      Singlet-?Sym    3.7194 eV  333.34 nm  f=0.0547  <S**2>=0.000
      63 -> 66         0.70445
 
 Excited state symmetry could not be determined.
 Excited State   4:      Singlet-?Sym    4.3277 eV  286.49 nm  f=0.0094  <S**2>=0.000
      62 -> 66         0.70069
 
 Excited state symmetry could not be determined.
 Excited State   5:      Singlet-?Sym    4.7804 eV  259.36 nm  f=0.0020  <S**2>=0.000
      60 -> 66         0.63890
      61 -> 66         0.28769
 
 Excited state symmetry could not be determined.
 Excited State   6:      Singlet-?Sym    5.0012 eV  247.91 nm  f=0.0001  <S**2>=0.000
      65 -> 67         0.68597
      65 -> 68        -0.13795
 SavETr:  write IOETrn=   770 NScale= 10 NData=  16 NLR=1 NState=    6 LETran=     118.
 Leave Link  914 at Tue May  9 11:15:12 2017, MaxMem=  7340032000 cpu:           10137.2 elap:             640.3
 (Enter /cm/shared/apps/gaussian/g16A03/g16/l601.exe)
 Copying SCF densities to generalized density rwf, IOpCl= 0 IROHF=0.

 **********************************************************************

            Population analysis using the SCF density.

 **********************************************************************

 Alpha  occ. eigenvalues --  -19.16312 -19.16170 -14.40880 -14.40748 -10.27754
 Alpha  occ. eigenvalues --  -10.27698 -10.25986 -10.25690 -10.25678 -10.24397
 Alpha  occ. eigenvalues --  -10.24395 -10.22401 -10.22387 -10.22123 -10.22040
 Alpha  occ. eigenvalues --  -10.21660 -10.21653  -6.83052  -1.03069  -1.00025
 Alpha  occ. eigenvalues --   -0.99621  -0.98536  -0.84371  -0.82856  -0.82385
 Alpha  occ. eigenvalues --   -0.78900  -0.76290  -0.73245  -0.72951  -0.69357
 Alpha  occ. eigenvalues --   -0.63515  -0.62575  -0.58949  -0.57262  -0.56679
 Alpha  occ. eigenvalues --   -0.54598  -0.52002  -0.51901  -0.48392  -0.47127
 Alpha  occ. eigenvalues --   -0.46203  -0.45705  -0.44524  -0.43541  -0.43405
 Alpha  occ. eigenvalues --   -0.43273  -0.43198  -0.42038  -0.41811  -0.41083
 Alpha  occ. eigenvalues --   -0.40590  -0.40195  -0.38923  -0.38638  -0.38406
 Alpha  occ. eigenvalues --   -0.38034  -0.37002  -0.36698  -0.31860  -0.30400
 Alpha  occ. eigenvalues --   -0.30163  -0.28691  -0.26243  -0.25635  -0.21188
 Alpha virt. eigenvalues --   -0.09223   0.00138   0.01262   0.01696   0.02401
 Alpha virt. eigenvalues --    0.02738   0.03189   0.03415   0.03900   0.04596
 Alpha virt. eigenvalues --    0.04987   0.05144   0.05322   0.05755   0.06386
 Alpha virt. eigenvalues --    0.07058   0.07398   0.07807   0.07875   0.08345
 Alpha virt. eigenvalues --    0.08708   0.09248   0.10056   0.10145   0.10724
 Alpha virt. eigenvalues --    0.11016   0.11181   0.11421   0.11717   0.12307
 Alpha virt. eigenvalues --    0.12648   0.13094   0.13444   0.13846   0.14861
 Alpha virt. eigenvalues --    0.15484   0.15667   0.15842   0.16295   0.16571
 Alpha virt. eigenvalues --    0.17202   0.17293   0.17749   0.18033   0.18589
 Alpha virt. eigenvalues --    0.18678   0.18746   0.19034   0.19499   0.19709
 Alpha virt. eigenvalues --    0.20072   0.20249   0.20514   0.20677   0.21054
 Alpha virt. eigenvalues --    0.21489   0.21661   0.22474   0.22794   0.23641
 Alpha virt. eigenvalues --    0.24253   0.24380   0.24726   0.24828   0.25622
 Alpha virt. eigenvalues --    0.25724   0.26280   0.26628   0.26870   0.27012
 Alpha virt. eigenvalues --    0.27136   0.27512   0.27860   0.28188   0.29102
 Alpha virt. eigenvalues --    0.29672   0.30131   0.30360   0.30446   0.30704
 Alpha virt. eigenvalues --    0.31510   0.32037   0.32255   0.32605   0.33097
 Alpha virt. eigenvalues --    0.33338   0.33701   0.34811   0.35177   0.35786
 Alpha virt. eigenvalues --    0.36558   0.37101   0.37396   0.37806   0.38302
 Alpha virt. eigenvalues --    0.38911   0.40104   0.40488   0.41143   0.42128
 Alpha virt. eigenvalues --    0.42313   0.42850   0.44351   0.44575   0.44846
 Alpha virt. eigenvalues --    0.45443   0.46513   0.46852   0.47026   0.47886
 Alpha virt. eigenvalues --    0.48945   0.49332   0.50250   0.50892   0.51790
 Alpha virt. eigenvalues --    0.53153   0.54020   0.54542   0.54815   0.56812
 Alpha virt. eigenvalues --    0.58481   0.59233   0.59546   0.59960   0.60284
 Alpha virt. eigenvalues --    0.60720   0.61297   0.62296   0.63130   0.63288
 Alpha virt. eigenvalues --    0.63770   0.64326   0.65136   0.65548   0.65860
 Alpha virt. eigenvalues --    0.66031   0.66709   0.67897   0.68690   0.69014
 Alpha virt. eigenvalues --    0.69282   0.69561   0.69761   0.70448   0.70822
[...]
   Coulomb                   =  0.008431405 eV
   Exact-exchange            = -0.000469740 eV
   Exchange-correlation      = -0.000019046 eV
   w-avg*Overlap             =  0.000047742 eV (w-avg=  4.4413 eV, Ovlp= 0.107495D-04)
   Explicit solvent-mediated = -0.000048418 eV
   Total coupling            =  0.007941944 eV
   Solvent screening         =  0.993940447

 Frag=  3 State=  1 (w=  4.3915 eV) <=> Frag=  2 State=  3 (w=  5.5877 eV)

   delta-w                   = -1.196173134 eV
   Coulomb                   =  0.008046153 eV
   Exact-exchange            = -0.001639648 eV
   Exchange-correlation      =  0.000090655 eV
   w-avg*Overlap             =  0.000101091 eV (w-avg=  4.9896 eV, Ovlp= 0.202603D-04)
   Explicit solvent-mediated =  0.000634526 eV
   Total coupling            =  0.007232777 eV
   Solvent screening         =  1.096165724

 Frag=  3 State=  1 (w=  4.3915 eV) <=> Frag=  2 State=  4 (w=  5.6704 eV)

   delta-w                   = -1.278830308 eV
   Coulomb                   =  0.034703841 eV
   Exact-exchange            = -0.002536225 eV
   Exchange-correlation      =  0.000024645 eV
   w-avg*Overlap             =  0.000178266 eV (w-avg=  5.0309 eV, Ovlp= 0.354340D-04)
   Explicit solvent-mediated = -0.000816155 eV
   Total coupling            =  0.031554372 eV
   Solvent screening         =  0.974787088

 Frag=  3 State=  1 (w=  4.3915 eV) <=> Frag=  2 State=  5 (w=  5.8226 eV)

   delta-w                   = -1.431113221 eV
   Coulomb                   =  0.010720856 eV
   Exact-exchange            =  0.000252382 eV
   Exchange-correlation      =  0.000090785 eV
   w-avg*Overlap             = -0.000001973 eV (w-avg=  5.1071 eV, Ovlp=-0.386321D-06)
   Explicit solvent-mediated = -0.001491350 eV
   Total coupling            =  0.009570701 eV
   Solvent screening         =  0.865183258

 Frag=  3 State=  1 (w=  4.3915 eV) <=> Frag=  2 State=  6 (w=  6.0908 eV)

   delta-w                   = -1.699234679 eV
   Coulomb                   =  0.045190717 eV
   Exact-exchange            = -0.000074297 eV
   Exchange-correlation      = -0.000061335 eV
   w-avg*Overlap             =  0.000053723 eV (w-avg=  5.2411 eV, Ovlp= 0.102503D-04)
   Explicit solvent-mediated = -0.002926076 eV
   Total coupling            =  0.042182732 eV
   Solvent screening         =  0.935132942

 Frag=  3 State=  2 (w=  4.5000 eV) <=> Frag=  2 State=  1 (w=  4.3740 eV)

   delta-w                   =  0.125988015 eV
   Coulomb                   =  0.006247386 eV
   Exact-exchange            = -0.000198158 eV
   Exchange-correlation      = -0.000014694 eV
   w-avg*Overlap             =  0.000030943 eV (w-avg=  4.4370 eV, Ovlp= 0.697399D-05)
   Explicit solvent-mediated = -0.000175871 eV
   Total coupling            =  0.005889606 eV
   Solvent screening         =  0.971004610

 Frag=  3 State=  2 (w=  4.5000 eV) <=> Frag=  2 State=  2 (w=  4.4911 eV)

   delta-w                   =  0.008873799 eV
   Coulomb                   =  0.001079896 eV
   Exact-exchange            =  0.000309089 eV
   Exchange-correlation      = -0.000015119 eV
   w-avg*Overlap             = -0.000006470 eV (w-avg=  4.4955 eV, Ovlp=-0.143912D-05)
   Explicit solvent-mediated =  0.000032091 eV
   Total coupling            =  0.001399488 eV
   Solvent screening         =  1.023468966

 Frag=  3 State=  2 (w=  4.5000 eV) <=> Frag=  2 State=  3 (w=  5.5877 eV)

   delta-w                   = -1.087727049 eV
   Coulomb                   =  0.000919401 eV
   Exact-exchange            = -0.000607891 eV
   Exchange-correlation      = -0.000007820 eV
   w-avg*Overlap             = -0.000010955 eV (w-avg=  5.0438 eV, Ovlp=-0.217192D-05)
   Explicit solvent-mediated = -0.000021426 eV
   Total coupling            =  0.000271308 eV
   Solvent screening         =  0.926806990

 Frag=  3 State=  2 (w=  4.5000 eV) <=> Frag=  2 State=  4 (w=  5.6704 eV)

   delta-w                   = -1.170384223 eV
   Coulomb                   =  0.008486467 eV
   Exact-exchange            = -0.001028629 eV
   Exchange-correlation      = -0.000013026 eV
   w-avg*Overlap             =  0.000023318 eV (w-avg=  5.0852 eV, Ovlp= 0.458550D-05)
   Explicit solvent-mediated = -0.000660571 eV
   Total coupling            =  0.006807558 eV
   Solvent screening         =  0.911547956

 Frag=  3 State=  2 (w=  4.5000 eV) <=> Frag=  2 State=  5 (w=  5.8226 eV)

   delta-w                   = -1.322667135 eV
   Coulomb                   = -0.000173713 eV
   Exact-exchange            =  0.001070617 eV
   Exchange-correlation      = -0.000025671 eV
   w-avg*Overlap             = -0.000068495 eV (w-avg=  5.1613 eV, Ovlp=-0.132709D-04)
   Explicit solvent-mediated = -0.000254065 eV
   Total coupling            =  0.000548673 eV
   Solvent screening         =  0.683502317

 Frag=  3 State=  2 (w=  4.5000 eV) <=> Frag=  2 State=  6 (w=  6.0908 eV)

   delta-w                   = -1.590788593 eV
   Coulomb                   =  0.006057883 eV
   Exact-exchange            =  0.000294674 eV
   Exchange-correlation      =  0.000005504 eV
   w-avg*Overlap             =  0.000014265 eV (w-avg=  5.2954 eV, Ovlp= 0.269383D-05)
   Explicit solvent-mediated =  0.000015425 eV
   Total coupling            =  0.006387750 eV
   Solvent screening         =  1.002420563

 Frag=  3 State=  3 (w=  5.6133 eV) <=> Frag=  2 State=  1 (w=  4.3740 eV)

   delta-w                   =  1.239361837 eV
   Coulomb                   =  0.009683434 eV
   Exact-exchange            = -0.001700492 eV
   Exchange-correlation      =  0.000085579 eV
   w-avg*Overlap             =  0.000108895 eV (w-avg=  4.9937 eV, Ovlp= 0.218067D-04)
   Explicit solvent-mediated =  0.000410854 eV
   Total coupling            =  0.008588270 eV
   Solvent screening         =  1.050242495

 Frag=  3 State=  3 (w=  5.6133 eV) <=> Frag=  2 State=  2 (w=  4.4911 eV)

   delta-w                   =  1.122247621 eV
   Coulomb                   =  0.001652579 eV
   Exact-exchange            = -0.000843355 eV
   Exchange-correlation      = -0.000006069 eV
   w-avg*Overlap             =  0.000001136 eV (w-avg=  5.0522 eV, Ovlp= 0.224818D-06)
   Explicit solvent-mediated =  0.000050145 eV
   Total coupling            =  0.000854435 eV
   Solvent screening         =  1.062346726

 Frag=  3 State=  3 (w=  5.6133 eV) <=> Frag=  2 State=  3 (w=  5.5877 eV)

   delta-w                   =  0.025646773 eV
   Coulomb                   =  0.006612795 eV
   Exact-exchange            = -0.003501980 eV
   Exchange-correlation      = -0.000140055 eV
   w-avg*Overlap             =  0.000091944 eV (w-avg=  5.6005 eV, Ovlp= 0.164170D-04)
   Explicit solvent-mediated =  0.000140341 eV
   Total coupling            =  0.003203045 eV
   Solvent screening         =  1.045822612

 Frag=  3 State=  3 (w=  5.6133 eV) <=> Frag=  2 State=  4 (w=  5.6704 eV)

   delta-w                   = -0.057010401 eV
   Coulomb                   =  0.017826184 eV
   Exact-exchange            = -0.002912895 eV
   Exchange-correlation      = -0.000097452 eV
   w-avg*Overlap             =  0.000113839 eV (w-avg=  5.6418 eV, Ovlp= 0.201776D-04)
   Explicit solvent-mediated = -0.000381972 eV
   Total coupling            =  0.014547704 eV
   Solvent screening         =  0.974415250

 Frag=  3 State=  3 (w=  5.6133 eV) <=> Frag=  2 State=  5 (w=  5.8226 eV)

   delta-w                   = -0.209293314 eV
   Coulomb                   =  0.005884319 eV
   Exact-exchange            = -0.000407990 eV
   Exchange-correlation      = -0.000162244 eV
   w-avg*Overlap             =  0.000027045 eV (w-avg=  5.7180 eV, Ovlp= 0.472987D-05)
   Explicit solvent-mediated = -0.000575720 eV
   Total coupling            =  0.004765411 eV
   Solvent screening         =  0.892210142

 Frag=  3 State=  3 (w=  5.6133 eV) <=> Frag=  2 State=  6 (w=  6.0908 eV)

   delta-w                   = -0.477414771 eV
   Coulomb                   =  0.004367364 eV
   Exact-exchange            =  0.000046116 eV
   Exchange-correlation      =  0.000101633 eV
   w-avg*Overlap             =  0.000009443 eV (w-avg=  5.8520 eV, Ovlp= 0.161359D-05)
   Explicit solvent-mediated =  0.000863683 eV
   Total coupling            =  0.005388238 eV
   Solvent screening         =  1.190887918

 Frag=  3 State=  4 (w=  5.6842 eV) <=> Frag=  2 State=  1 (w=  4.3740 eV)

   delta-w                   =  1.310172715 eV
   Coulomb                   = -0.036846203 eV
   Exact-exchange            =  0.002338605 eV
   Exchange-correlation      = -0.000022921 eV
   w-avg*Overlap             = -0.000170716 eV (w-avg=  5.0291 eV, Ovlp=-0.339458D-04)
   Explicit solvent-mediated =  0.002142882 eV
   Total coupling            = -0.032558354 eV
   Solvent screening         =  0.938247662

 Frag=  3 State=  4 (w=  5.6842 eV) <=> Frag=  2 State=  2 (w=  4.4911 eV)

   delta-w                   =  1.193058500 eV
   Coulomb                   = -0.009744109 eV
   Exact-exchange            =  0.001063668 eV
   Exchange-correlation      =  0.000010917 eV
   w-avg*Overlap             = -0.000029822 eV (w-avg=  5.0876 eV, Ovlp=-0.586169D-05)
   Explicit solvent-mediated =  0.000509276 eV
   Total coupling            = -0.008190071 eV
   Solvent screening         =  0.941458137

 Frag=  3 State=  4 (w=  5.6842 eV) <=> Frag=  2 State=  3 (w=  5.5877 eV)

   delta-w                   =  0.096457652 eV
   Coulomb                   = -0.013989677 eV
   Exact-exchange            =  0.002522524 eV
   Exchange-correlation      =  0.000093732 eV
   w-avg*Overlap             = -0.000099623 eV (w-avg=  5.6359 eV, Ovlp=-0.176765D-04)
   Explicit solvent-mediated = -0.000526468 eV
   Total coupling            = -0.011999512 eV
   Solvent screening         =  1.045887396

 Frag=  3 State=  4 (w=  5.6842 eV) <=> Frag=  2 State=  4 (w=  5.6704 eV)

   delta-w                   =  0.013800478 eV
   Coulomb                   = -0.148702951 eV
   Exact-exchange            =  0.003638229 eV
   Exchange-correlation      =  0.000059050 eV
   w-avg*Overlap             = -0.000144586 eV (w-avg=  5.6773 eV, Ovlp=-0.254676D-04)
   Explicit solvent-mediated =  0.045248316 eV
   Total coupling            = -0.099901942 eV
   Solvent screening         =  0.688265687

 Frag=  3 State=  4 (w=  5.6842 eV) <=> Frag=  2 State=  5 (w=  5.8226 eV)

   delta-w                   = -0.138482435 eV
   Coulomb                   = -0.012320764 eV
   Exact-exchange            = -0.001230889 eV
   Exchange-correlation      =  0.000123620 eV
   w-avg*Overlap             =  0.000133147 eV (w-avg=  5.7534 eV, Ovlp= 0.231424D-04)
   Explicit solvent-mediated =  0.006628899 eV
   Total coupling            = -0.006665986 eV
   Solvent screening         =  0.501394773

 Frag=  3 State=  4 (w=  5.6842 eV) <=> Frag=  2 State=  6 (w=  6.0908 eV)

   delta-w                   = -0.406603893 eV
   Coulomb                   = -0.035366470 eV
   Exact-exchange            = -0.000069619 eV
   Exchange-correlation      = -0.000074331 eV
   w-avg*Overlap             =  0.000029292 eV (w-avg=  5.8875 eV, Ovlp= 0.497528D-05)
   Explicit solvent-mediated =  0.001760221 eV
   Total coupling            = -0.033720907 eV
   Solvent screening         =  0.950389926

 Frag=  3 State=  5 (w=  5.8255 eV) <=> Frag=  2 State=  1 (w=  4.3740 eV)

   delta-w                   =  1.451508919 eV
   Coulomb                   =  0.010650899 eV
   Exact-exchange            =  0.000073505 eV
   Exchange-correlation      =  0.000084915 eV
   w-avg*Overlap             =  0.000000882 eV (w-avg=  5.0997 eV, Ovlp= 0.172968D-06)
   Explicit solvent-mediated = -0.001963232 eV
   Total coupling            =  0.008846970 eV
   Solvent screening         =  0.818390832

 Frag=  3 State=  5 (w=  5.8255 eV) <=> Frag=  2 State=  2 (w=  4.4911 eV)

   delta-w                   =  1.334394703 eV
   Coulomb                   = -0.000003890 eV
   Exact-exchange            =  0.001100201 eV
   Exchange-correlation      = -0.000022762 eV
   w-avg*Overlap             = -0.000072200 eV (w-avg=  5.1583 eV, Ovlp=-0.139969D-04)
   Explicit solvent-mediated = -0.000370185 eV
   Total coupling            =  0.000631165 eV
   Solvent screening         =  0.630314330

 Frag=  3 State=  5 (w=  5.8255 eV) <=> Frag=  2 State=  3 (w=  5.5877 eV)

   delta-w                   =  0.237793855 eV
   Coulomb                   =  0.005249141 eV
   Exact-exchange            = -0.000317206 eV
   Exchange-correlation      = -0.000155312 eV
   w-avg*Overlap             =  0.000034877 eV (w-avg=  5.7066 eV, Ovlp= 0.611169D-05)
   Explicit solvent-mediated = -0.000536027 eV
   Total coupling            =  0.004275473 eV
   Solvent screening         =  0.888594522

 Frag=  3 State=  5 (w=  5.8255 eV) <=> Frag=  2 State=  4 (w=  5.6704 eV)

   delta-w                   =  0.155136681 eV
   Coulomb                   =  0.009253840 eV
   Exact-exchange            =  0.000981060 eV
   Exchange-correlation      = -0.000126614 eV
   w-avg*Overlap             = -0.000137593 eV (w-avg=  5.7479 eV, Ovlp=-0.239378D-04)
   Explicit solvent-mediated = -0.006534150 eV
   Total coupling            =  0.003436543 eV
   Solvent screening         =  0.344664398

 Frag=  3 State=  5 (w=  5.8255 eV) <=> Frag=  2 State=  5 (w=  5.8226 eV)

   delta-w                   =  0.002853769 eV
   Coulomb                   = -0.000478595 eV
   Exact-exchange            =  0.008067687 eV
   Exchange-correlation      = -0.000217538 eV
   w-avg*Overlap             = -0.000029061 eV (w-avg=  5.8241 eV, Ovlp=-0.498976D-05)
   Explicit solvent-mediated = -0.001283854 eV
   Total coupling            =  0.006058639 eV
   Solvent screening         =  0.825147345

 Frag=  3 State=  5 (w=  5.8255 eV) <=> Frag=  2 State=  6 (w=  6.0908 eV)

   delta-w                   = -0.265267689 eV
   Coulomb                   = -0.000679823 eV
   Exact-exchange            =  0.001802069 eV
   Exchange-correlation      =  0.000123893 eV
   w-avg*Overlap             = -0.000068976 eV (w-avg=  5.9581 eV, Ovlp=-0.115767D-04)
   Explicit solvent-mediated = -0.001132184 eV
   Total coupling            =  0.000044979 eV
   Solvent screening         =  0.038209920

 Frag=  3 State=  6 (w=  6.0979 eV) <=> Frag=  2 State=  1 (w=  4.3740 eV)

   delta-w                   =  1.723907983 eV
   Coulomb                   = -0.045433160 eV
   Exact-exchange            = -0.000038673 eV
   Exchange-correlation      =  0.000057191 eV
   w-avg*Overlap             = -0.000050473 eV (w-avg=  5.2359 eV, Ovlp=-0.963983D-05)
   Explicit solvent-mediated =  0.003329363 eV
   Total coupling            = -0.042135754 eV
   Solvent screening         =  0.926771054

 Frag=  3 State=  6 (w=  6.0979 eV) <=> Frag=  2 State=  2 (w=  4.4911 eV)

   delta-w                   =  1.606793767 eV
   Coulomb                   = -0.007723714 eV
   Exact-exchange            = -0.000390898 eV
   Exchange-correlation      = -0.000003208 eV
   w-avg*Overlap             = -0.000012472 eV (w-avg=  5.2945 eV, Ovlp=-0.235565D-05)
   Explicit solvent-mediated = -0.000001932 eV
   Total coupling            = -0.008132224 eV
   Solvent screening         =  1.000237682

 Frag=  3 State=  6 (w=  6.0979 eV) <=> Frag=  2 State=  3 (w=  5.5877 eV)

   delta-w                   =  0.510192919 eV
   Coulomb                   = -0.003143032 eV
   Exact-exchange            = -0.000114125 eV
   Exchange-correlation      = -0.000100534 eV
   w-avg*Overlap             = -0.000006288 eV (w-avg=  5.8428 eV, Ovlp=-0.107627D-05)
   Explicit solvent-mediated = -0.000910369 eV
   Total coupling            = -0.004274348 eV
   Solvent screening         =  1.270622538

 Frag=  3 State=  6 (w=  6.0979 eV) <=> Frag=  2 State=  4 (w=  5.6704 eV)

   delta-w                   =  0.427535745 eV
   Coulomb                   = -0.034450268 eV
   Exact-exchange            =  0.000032993 eV
   Exchange-correlation      = -0.000072491 eV
   w-avg*Overlap             =  0.000028812 eV (w-avg=  5.8841 eV, Ovlp= 0.489650D-05)
   Explicit solvent-mediated =  0.001228431 eV
   Total coupling            = -0.033232524 eV
   Solvent screening         =  0.964352947

 Frag=  3 State=  6 (w=  6.0979 eV) <=> Frag=  2 State=  5 (w=  5.8226 eV)

   delta-w                   =  0.275252833 eV
   Coulomb                   =  0.000512618 eV
   Exact-exchange            = -0.001873919 eV
   Exchange-correlation      = -0.000127134 eV
   w-avg*Overlap             =  0.000072768 eV (w-avg=  5.9603 eV, Ovlp= 0.122089D-04)
   Explicit solvent-mediated =  0.000468040 eV
   Total coupling            = -0.000947627 eV
   Solvent screening         =  0.669385482

 Frag=  3 State=  6 (w=  6.0979 eV) <=> Frag=  2 State=  6 (w=  6.0908 eV)

   delta-w                   =  0.007131375 eV
   Coulomb                   = -0.044817074 eV
   Exact-exchange            =  0.000062141 eV
   Exchange-correlation      =  0.000070122 eV
   w-avg*Overlap             = -0.000008836 eV (w-avg=  6.0943 eV, Ovlp=-0.144987D-05)
   Explicit solvent-mediated =  0.004114534 eV
   Total coupling            = -0.040579113 eV
   Solvent screening         =  0.907939169
 
 Leave Link  925 at Tue May  9 12:19:13 2017, MaxMem=  7340032000 cpu:           54175.0 elap:            3397.8
 (Enter /cm/shared/apps/gaussian/g16A03/g16/l9999.exe)
 1\1\GINC-C8000-05\SP\RPBE1PBE TD-FC\6-311+G(d,p)\C33H27B1N2O2\LORENZO\
 09-May-2017\0\\#p td(nstate=6) pbe1pbe/6-311+G(d,p) nosymm eet=fragmen
 t=3 scrf(iefpcm,solvent=Chloroform)\\opt\\0,1\C,0,1.548264,10.553765,1
 .790179\B,0,1.137124,13.009662,3.471666\N,0,1.935066,12.929675,2.10341
 2\C,0,2.447627,13.94151,1.362125\C,0,2.070961,11.75641,1.348974\C,0,2.
 953385,13.426177,0.148865\C,0,2.724297,12.059723,0.123812\H,0,3.425374
 ,14.020429,-0.621478\N,0,0.768787,11.519047,3.876844\C,0,0.90745,10.42
 5426,3.009811\C,0,0.262113,11.04084,5.041802\C,0,0.435038,9.250829,3.6
 54471\C,0,0.040276,9.651392,4.920309\H,0,-0.35867,9.024102,5.705577\C,
 0,3.077337,11.090716,-0.961533\H,0,3.812609,10.354046,-0.622814\H,0,2.
 202918,10.534484,-1.312345\H,0,3.503809,11.611177,-1.820489\C,0,2.4502
 68,15.381578,1.747006\H,0,2.685205,15.992677,0.874508\H,0,1.48323,15.6
 90306,2.144143\H,0,3.197762,15.595278,2.514938\C,0,0.411855,7.868284,3
 .080505\H,0,-0.163106,7.82393,2.150769\H,0,1.419459,7.506199,2.853296\
 H,0,-0.039365,7.165599,3.782776\C,0,-0.009705,11.831399,6.278192\H,0,0
 .786559,12.544118,6.483568\H,0,-0.942045,12.395887,6.200232\H,0,-0.107
 444,11.151354,7.126057\H,0,1.657787,9.67567,1.163613\O,0,-0.018989,13.
 84003,3.143103\O,0,1.925618,13.510194,4.595523\C,0,2.034487,14.820578,
 4.932168\C,0,0.93561,15.651874,5.131653\C,0,3.355693,15.298022,5.13631
 3\C,0,1.180128,17.061641,5.310596\C,0,-0.446913,15.094779,5.143806\C,0
 ,3.592501,16.612373,5.430491\H,0,4.165807,14.582681,5.043634\C,0,0.138
 548,18.030137,5.278792\C,0,2.520045,17.54043,5.48091\C,0,-1.361781,15.
 353655,6.226578\C,0,-0.86799,14.252845,4.12204\H,0,4.606909,16.96482,5
 .591639\C,0,0.398644,19.370913,5.444545\H,0,-0.878965,17.704851,5.1045
 55\C,0,2.753012,18.926876,5.673256\C,0,-0.971074,16.008082,7.428324\C,
 0,-2.716294,14.890254,6.13927\C,0,-2.210926,13.810069,4.034574\C,0,1.7
 17001,19.829229,5.661106\H,0,-0.418467,20.084241,5.402898\H,0,3.775358
 ,19.265571,5.815389\C,0,-1.865892,16.232005,8.44869\H,0,0.056943,16.32
 3887,7.547318\C,0,-3.621008,15.15853,7.199945\C,0,-3.119637,14.142966,
 5.002135\H,0,-2.486913,13.201266,3.180579\H,0,1.908262,20.888217,5.800
 726\C,0,-3.212327,15.820848,8.331593\H,0,-1.531414,16.725429,9.355807\
 H,0,-4.646563,14.813115,7.105424\H,0,-4.149859,13.808067,4.927014\H,0,
 -3.911448,16.013518,9.13884\\Version=ES64L-G16RevA.03\HF=-385.5149886\
 RMSD=8.986e-09\PG=C01 [X(C33H27B1N2O2)]\\@


 EDUCATION DOESN'T COST 
           ... IT PAYS!

 -- POSTMARK, UNIV. OF MISSISSIPPI, DEC 78
 Job cpu time:       0 days 20 hours 55 minutes 46.0 seconds.
 Elapsed time:       0 days  1 hours 18 minutes 56.7 seconds.
 File lengths (MBytes):  RWF=   2155 Int=      0 D2E=      0 Chk=    161 Scr=      1
 Normal termination of Gaussian 16 at Tue May  9 12:19:14 2017.
