 Entering Gaussian System, Link 0=gdv
 Initial command:
 /cm/shared/apps/gaussian/gdvH36/gdv/l1.exe "/local/lorenzo/gaurun16499/Gau-6818.inp" -scrdir="/local/lorenzo/gaurun16499"
 Entering Link 1 = /cm/shared/apps/gaussian/gdvH36/gdv/l1.exe PID=      6819.
  
 Copyright (c) 1988,1990,1992,1993,1995,1998,2003,2009,2014,
            Gaussian, Inc.  All Rights Reserved.
  
 This is the private, development version of
 the Gaussian(R) DV system of programs. It is based on
 the Gaussian(R) 09 system (copyright 2009, Gaussian, Inc.),
 the Gaussian(R) 03 system (copyright 2003, Gaussian, Inc.),
 the Gaussian(R) 98 system (copyright 1998, Gaussian, Inc.),
 the Gaussian(R) 94 system (copyright 1995, Gaussian, Inc.),
 the Gaussian 92(TM) system (copyright 1992, Gaussian, Inc.),
 the Gaussian 90(TM) system (copyright 1990, Gaussian, Inc.),
 the Gaussian 88(TM) system (copyright 1988, Gaussian, Inc.),
 the Gaussian 86(TM) system (copyright 1986, Carnegie Mellon
 University), and the Gaussian 82(TM) system (copyright 1983,
 Carnegie Mellon University). Gaussian is a federally registered
 trademark of Gaussian, Inc.
  
 This software contains proprietary and confidential information,
 including trade secrets, belonging to Gaussian, Inc.
  
 This software is provided under written license and may be
 used, copied, transmitted, or stored only in accord with that
 written license.
  
 The following legend is applicable only to US Government
 contracts under FAR:
  
                    RESTRICTED RIGHTS LEGEND
  
 Use, reproduction and disclosure by the US Government is
 subject to restrictions as set forth in subparagraphs (a)
 and (c) of the Commercial Computer Software - Restricted
 Rights clause in FAR 52.227-19.
  
 Gaussian, Inc.
 340 Quinnipiac St., Bldg. 40, Wallingford CT 06492
  
  
 ---------------------------------------------------------------
 Warning -- This program may not be used in any manner that
 competes with the business of Gaussian, Inc. or will provide
 assistance to any competitor of Gaussian, Inc.  The licensee
 of this program is prohibited from giving any competitor of
 Gaussian, Inc. access to this program.  By using this program,
 the user acknowledges that Gaussian, Inc. is engaged in the
 business of creating and licensing software in the field of
 computational chemistry and represents and warrants to the
 licensee that it is not a competitor of Gaussian, Inc. and that
 it will not use this program in any manner prohibited above.
 ---------------------------------------------------------------
  

 Cite this work as:
 Gaussian Development Version, Revision H.36,
 M. J. Frisch, G. W. Trucks, H. B. Schlegel, G. E. Scuseria, 
 M. A. Robb, J. R. Cheeseman, G. Scalmani, V. Barone, B. Mennucci, 
 G. A. Petersson, H. Nakatsuji, M. Caricato, X. Li, H. P. Hratchian, 
 A. F. Izmaylov, J. Bloino, B. G. Janesko, F. Lipparini, G. Zheng, 
 J. L. Sonnenberg, W. Liang, M. Hada, M. Ehara, K. Toyota, R. Fukuda, 
 J. Hasegawa, M. Ishida, T. Nakajima, Y. Honda, O. Kitao, H. Nakai, 
 T. Vreven, J. A. Montgomery, Jr., J. E. Peralta, F. Ogliaro, 
 M. Bearpark, J. J. Heyd, E. Brothers, K. N. Kudin, V. N. Staroverov, 
 T. Keith, R. Kobayashi, J. Normand, K. Raghavachari, A. Rendell, 
 J. C. Burant, S. S. Iyengar, J. Tomasi, M. Cossi, N. Rega, 
 J. M. Millam, M. Klene, J. E. Knox, J. B. Cross, V. Bakken, 
 C. Adamo, J. Jaramillo, R. Gomperts, R. E. Stratmann, O. Yazyev, 
 A. J. Austin, R. Cammi, C. Pomelli, J. W. Ochterski, R. L. Martin, 
 K. Morokuma, V. G. Zakrzewski, G. A. Voth, P. Salvador, 
 J. J. Dannenberg, S. Dapprich, P. V. Parandekar, N. J. Mayhall, 
 A. D. Daniels, O. Farkas, J. B. Foresman, J. V. Ortiz, 
 J. Cioslowski, and D. J. Fox, Gaussian, Inc., Wallingford CT, 2010.
 
 ******************************************
 Gaussian DV:  ES64L-GDVRevH.36  7-Apr-2014
                11-Sep-2015 
 ******************************************
 %Mem=128GB
 %NProcShared=12
 Will use up to   12 processors via shared memory.
 %Chk=NMR4_Vac.chk
 ---------------------------------------------------------
 #p td=(nstates=10) m062x/6-31g(d) nosymm eet(fragment=12)
 ---------------------------------------------------------
 1/38=1,62=12,160=80,172=1/1;
 2/12=2,15=1,17=6,18=5,40=1/2;
 1/38=1,53=2,62=12,63=1,160=80/22;
 3/5=1,6=6,7=1,11=9,16=1,25=1,30=1,74=-55,89=1/1,2,8,3;
 4//1;
 6/7=2,8=2,9=2,10=2,11=2/1;
 1/53=2,62=12,63=1,160=80/22;
 3/5=7,6=11,7=1,11=9,16=1,25=1,30=1,74=-55,82=7/1,2,8,3;
 4//1;
 5/5=2,38=5/2;
 8/6=1,10=2,108=10/1;
 9/41=10,42=1,70=2/14;
 6/7=2,8=2,9=2,10=2/1;
 1/53=2,62=12,63=1,160=80/22(-6);
 9/41=10,70=2/25;
 99/5=1,9=1/99;
 Leave Link    1 at Fri Sep 11 17:35:03 2015, MaxMem= 17179869184 cpu:               0.5 elap:               0.0
 (Enter /cm/shared/apps/gaussian/gdvH36/gdv/l101.exe)
 --------------------------
 NMR 4 Prova gdvh36 normale
 --------------------------
 Symbolic Z-matrix:
 Charge =  0 Multiplicity = 1 in supermolecule
 Charge =  0 Multiplicity = 1 in fragment      1.
 Charge =  0 Multiplicity = 1 in fragment      2.
 Charge =  0 Multiplicity = 1 in fragment      3.
 Charge =  0 Multiplicity = 1 in fragment      4.
 Charge =  0 Multiplicity = 1 in fragment      5.
 Charge =  0 Multiplicity = 1 in fragment      6.
 Charge =  0 Multiplicity = 1 in fragment      7.
 Charge =  0 Multiplicity = 1 in fragment      8.
 Charge =  0 Multiplicity = 1 in fragment      9.
 Charge =  0 Multiplicity = 1 in fragment     10.
 Charge =  0 Multiplicity = 1 in fragment     11.
 Charge =  0 Multiplicity = 1 in fragment     12.
 H(Fragment=1)        -12.66747  -3.35372   5.2482 
 N(Fragment=1)        -12.31617  -2.40984   5.28039 
 C(Fragment=1)        -11.87155  -1.70514   6.38668 
 H(Fragment=1)        -11.86647  -2.14496   7.37349 
 N(Fragment=1)        -11.47899  -0.49809   6.09136 
 C(Fragment=1)        -11.66995  -0.39202   4.72714 
 C(Fragment=1)        -11.41772   0.70642   3.8351 
 O(Fragment=1)        -10.97732   1.81827   4.03083 
 N(Fragment=1)        -11.78331   0.32584   2.49289 
 H(Fragment=1)        -11.62715   1.06232   1.8179 
 C(Fragment=1)        -12.29303  -0.88335   2.09745 
 N(Fragment=1)        -12.57504  -1.04524   0.77562 
 H(Fragment=1)        -12.94874  -1.93086   0.48378 
 H(Fragment=1)        -12.42747  -0.32752   0.09046 
 N(Fragment=1)        -12.51749  -1.87606   2.92433 
 C(Fragment=1)        -12.19121  -1.57383   4.20365 
 H(Fragment=2)        -9.9554   -4.75795   0.5333 
 N(Fragment=2)        -9.57514  -4.01354   1.09599 
 C(Fragment=2)        -9.32701  -4.01904   2.45855 
 H(Fragment=2)        -9.53731  -4.88547   3.06875 
 N(Fragment=2)        -8.82961  -2.89257   2.88511 
 C(Fragment=2)        -8.74167  -2.09953   1.7572 
 C(Fragment=2)        -8.26843  -0.75118   1.60261 
 O(Fragment=2)        -7.82573   0.04386   2.40286 
 N(Fragment=2)        -8.37782  -0.36197   0.2182 
 H(Fragment=2)        -8.05799   0.58196   0.04758 
 C(Fragment=2)        -8.85325  -1.13192  -0.8111 
 N(Fragment=2)        -8.87497  -0.57694  -2.05388 
 H(Fragment=2)        -9.22311  -1.13972  -2.80968 
 H(Fragment=2)        -8.56237   0.35713  -2.24398 
 N(Fragment=2)        -9.28163  -2.36123  -0.65335 
 C(Fragment=2)        -9.20181  -2.78101   0.6319 
 H(Fragment=3)        -6.01432  -3.83915  -3.25488 
 N(Fragment=3)        -5.87128  -3.38546  -2.36514 
 C(Fragment=3)        -5.97832  -4.06654  -1.20074 
 H(Fragment=3)        -6.22449  -5.12021  -1.27002 
 C(Fragment=3)        -5.78041  -3.42935  -0.02051 
 H(Fragment=3)        -5.86007  -3.95078   0.92394 
 C(Fragment=3)        -5.46045  -2.02727  -0.10493 
 N(Fragment=3)        -5.25033  -1.33055   1.03971 
 H(Fragment=3)        -5.02773  -0.35201   0.96443 
 H(Fragment=3)        -5.3092   -1.75501   1.94748 
 N(Fragment=3)        -5.35569  -1.36219  -1.23637 
 C(Fragment=3)        -5.55285  -1.99247  -2.43626 
 O(Fragment=3)        -5.48067  -1.47533  -3.53157 
 H(Fragment=4)        -1.13083  -2.07951  -5.5304 
 N(Fragment=4)        -1.0596   -2.23332  -4.53719 
 C(Fragment=4)        -1.32569  -3.39603  -3.84404 
 H(Fragment=4)        -1.65381  -4.29299  -4.34993 
 N(Fragment=4)        -1.14012  -3.28453  -2.55478 
 C(Fragment=4)        -0.72804  -1.974    -2.38604 
 C(Fragment=4)        -0.3692   -1.22396  -1.24754 
 N(Fragment=4)        -0.38004  -1.75082  -0.00393 
 H(Fragment=4)        -0.11525  -1.1734    0.77543 
 H(Fragment=4)        -0.64922  -2.70793   0.14186 
 N(Fragment=4)        -0.00454   0.05789  -1.40772 
 C(Fragment=4)         0.00238   0.57003  -2.64722 
 H(Fragment=4)         0.30573   1.6111   -2.71645 
 N(Fragment=4)        -0.31147  -0.02439  -3.79906 
 C(Fragment=4)        -0.66946  -1.297    -3.60583 
 H(Fragment=5)         3.30466  -0.96216  -5.01596 
 N(Fragment=5)         3.1878   -1.59218  -4.23662 
 C(Fragment=5)         2.80156  -2.87615  -4.41928 
 H(Fragment=5)         2.62427  -3.19413  -5.44059 
 C(Fragment=5)         2.65303  -3.6991   -3.35213 
 H(Fragment=5)         2.34542  -4.72938  -3.47105 
 C(Fragment=5)         2.92862  -3.11846  -2.06285 
 N(Fragment=5)         2.79898  -3.88822  -0.95359 
 H(Fragment=5)         2.995    -3.46838  -0.06025 
 H(Fragment=5)         2.51736  -4.85082  -0.99553 
 N(Fragment=5)         3.30453  -1.86964  -1.88227 
 C(Fragment=5)         3.45874  -1.02667  -2.95067 
 O(Fragment=5)         3.79946   0.13661  -2.89538 
 H(Fragment=6)         8.12154  -1.24879  -2.30691 
 N(Fragment=6)         7.61831  -2.11443  -2.19089 
 C(Fragment=6)         7.10259  -2.78945  -3.27087 
 H(Fragment=6)         7.27799  -2.32452  -4.23371 
 C(Fragment=6)         6.42796  -3.94675  -3.13337 
 H(Fragment=6)         6.02289  -4.47671  -3.98288 
 C(Fragment=6)         6.22642  -4.51989  -1.80706 
 O(Fragment=6)         5.63968  -5.55031  -1.55244 
 N(Fragment=6)         6.79653  -3.74569  -0.77144 
 H(Fragment=6)         6.68161  -4.10475   0.16712 
 C(Fragment=6)         7.4948   -2.55497  -0.87338 
 O(Fragment=6)         7.95517  -1.94816   0.06668 
 H(Fragment=7)         10.97267   0.66044   6.20704 
 N(Fragment=7)         10.90799   0.89761   5.22984 
 C(Fragment=7)         11.49687   1.96533   4.57306 
 H(Fragment=7)         12.11682   2.67925   5.09579 
 N(Fragment=7)         11.21606   1.99172   3.30076 
 C(Fragment=7)         10.40349   0.89272   3.09893 
 C(Fragment=7)         9.781     0.4038    1.8992 
 O(Fragment=7)         9.79772   0.81305   0.75872 
 N(Fragment=7)         9.0245   -0.78572   2.20381 
 H(Fragment=7)         8.56185  -1.17682   1.39423 
 C(Fragment=7)         8.89882  -1.38105   3.43185 
 N(Fragment=7)         8.13495  -2.50499   3.51092 
 H(Fragment=7)         8.0416   -2.94284   4.41021 
 H(Fragment=7)         7.66798  -2.90864   2.72013 
 N(Fragment=7)         9.47359  -0.92215   4.5175 
 C(Fragment=7)         10.2      0.19812   4.28997 
 H(Fragment=8)         6.23106   1.82912   4.15558 
 N(Fragment=8)         5.71098   0.98626   3.96995 
 C(Fragment=8)         5.29665   0.02538   4.87726 
 H(Fragment=8)         5.51489   0.11119   5.93191 
 N(Fragment=8)         4.63965  -0.94939   4.31471 
 C(Fragment=8)         4.61411  -0.62502   2.97197 
 C(Fragment=8)         4.03123  -1.32111   1.8577 
 O(Fragment=8)         3.4148   -2.36232   1.79155 
 N(Fragment=8)         4.27291  -0.574     0.64797 
 H(Fragment=8)         3.88395  -1.01715  -0.17345 
 C(Fragment=8)         4.9477    0.6143    0.54346 
 N(Fragment=8)         5.06857   1.16217  -0.69679 
 H(Fragment=8)         5.56285   2.03318  -0.77547 
 H(Fragment=8)         4.69017   0.73869  -1.52373 
 N(Fragment=8)         5.47398   1.23705   1.5705 
 C(Fragment=8)         5.27692   0.57836   2.73743 
 H(Fragment=9)         2.01925   4.27337   1.29751 
 N(Fragment=9)         1.70145   3.34827   1.54085 
 C(Fragment=9)         1.7594    2.89225   2.83571 
 H(Fragment=9)         2.16535   3.59328   3.55526 
 C(Fragment=9)         1.33913   1.65945   3.17768 
 H(Fragment=9)         1.38505   1.30179   4.19581 
 C(Fragment=9)         0.80229   0.76365   2.15907 
 O(Fragment=9)         0.39355  -0.36397   2.33874 
 N(Fragment=9)         0.78886   1.33271   0.86567 
 H(Fragment=9)         0.42442   0.74711   0.12589 
 C(Fragment=9)         1.21094   2.59214   0.4765 
 O(Fragment=9)         1.16689   3.00907  -0.65845 
 H(Fragment=10)       -2.57727   5.56584  -1.42282 
 N(Fragment=10)       -2.81796   4.89916  -0.70661 
 C(Fragment=10)       -2.70462   5.04717   0.66576 
 H(Fragment=10)       -2.32121   5.95558   1.10741 
 N(Fragment=10)       -3.10353   3.99383   1.32124 
 C(Fragment=10)       -3.50094   3.10276   0.34305 
 C(Fragment=10)       -4.03271   1.7723    0.45713 
 O(Fragment=10)       -4.2735    1.08115   1.42294 
 N(Fragment=10)       -4.29557   1.24799  -0.86045 
 H(Fragment=10)       -4.67294   0.31006  -0.84348 
 C(Fragment=10)       -4.08314   1.89071  -2.05213 
 N(Fragment=10)       -4.39826   1.21965  -3.19377 
 H(Fragment=10)       -4.24327   1.68907  -4.06828 
 H(Fragment=10)       -4.77343   0.28929  -3.19841 
 N(Fragment=10)       -3.59694   3.10546  -2.1392 
 C(Fragment=10)       -3.3304    3.64919  -0.92769 
 H(Fragment=11)       -7.5869    4.48855  -2.90875 
 N(Fragment=11)       -7.52084   4.19779  -1.94488 
 C(Fragment=11)       -7.18778   5.07071  -0.966 
 H(Fragment=11)       -6.99594   6.09461  -1.26673 
 C(Fragment=11)       -7.107     4.65024   0.32039 
 H(Fragment=11)       -6.84285   5.3278    1.12125 
 C(Fragment=11)       -7.39282   3.25694   0.54919 
 N(Fragment=11)       -7.3297    2.77172   1.81425 
 H(Fragment=11)       -7.53201   1.79646   1.95805 
 H(Fragment=11)       -7.09065   3.34754   2.60099 
 N(Fragment=11)       -7.71708   2.4055   -0.40126 
 C(Fragment=11)       -7.8026    2.81575  -1.70519 
 O(Fragment=11)       -8.092     2.11607  -2.65338 
 H(Fragment=12)       -12.93147   2.94895  -2.41411 
 N(Fragment=12)       -12.44937   3.23104  -1.57391 
 C(Fragment=12)       -11.95323   4.48193  -1.4315 
 H(Fragment=12)       -12.09843   5.16428  -2.26151 
 C(Fragment=12)       -11.30999   4.83164  -0.29041 
 H(Fragment=12)       -10.90429   5.82481  -0.15163 
 C(Fragment=12)       -11.20296   3.80537   0.71489 
 N(Fragment=12)       -10.57079   4.09008   1.8807 
 H(Fragment=12)       -10.50408   3.36287   2.57313 
 H(Fragment=12)       -10.17274   4.99161   2.07168 
 N(Fragment=12)       -11.68471   2.58763   0.57898 
 C(Fragment=12)       -12.33681   2.21997  -0.56796 
 O(Fragment=12)       -12.81658   1.12874  -0.79467 
 
 ITRead=  0  0  0  0  0  0  0  0  0  0  0  0  0  0  0  0  0  0  0  0
 ITRead=  0  0  0  0  0  0  0  0  0  0  0  0  0  0  0  0  0  0  0  0
 ITRead=  0  0  0  0  0  0  0  0  0  0  0  0  0  0  0  0  0  0  0  0
 ITRead=  0  0  0  0  0  0  0  0  0  0  0  0  0  0  0  0  0  0  0  0
 ITRead=  0  0  0  0  0  0  0  0  0  0  0  0  0  0  0  0  0  0  0  0
 ITRead=  0  0  0  0  0  0  0  0  0  0  0  0  0  0  0  0  0  0  0  0
 ITRead=  0  0  0  0  0  0  0  0  0  0  0  0  0  0  0  0  0  0  0  0
 ITRead=  0  0  0  0  0  0  0  0  0  0  0  0  0  0  0  0  0  0  0  0
 ITRead=  0  0  0  0  0  0  0  0  0  0  0
 MicOpt= -1 -1 -1 -1 -1 -1 -1 -1 -1 -1 -1 -1 -1 -1 -1 -1 -1 -1 -1 -1
 MicOpt= -1 -1 -1 -1 -1 -1 -1 -1 -1 -1 -1 -1 -1 -1 -1 -1 -1 -1 -1 -1
 MicOpt= -1 -1 -1 -1 -1 -1 -1 -1 -1 -1 -1 -1 -1 -1 -1 -1 -1 -1 -1 -1
 MicOpt= -1 -1 -1 -1 -1 -1 -1 -1 -1 -1 -1 -1 -1 -1 -1 -1 -1 -1 -1 -1
 MicOpt= -1 -1 -1 -1 -1 -1 -1 -1 -1 -1 -1 -1 -1 -1 -1 -1 -1 -1 -1 -1
 MicOpt= -1 -1 -1 -1 -1 -1 -1 -1 -1 -1 -1 -1 -1 -1 -1 -1 -1 -1 -1 -1
 MicOpt= -1 -1 -1 -1 -1 -1 -1 -1 -1 -1 -1 -1 -1 -1 -1 -1 -1 -1 -1 -1
 MicOpt= -1 -1 -1 -1 -1 -1 -1 -1 -1 -1 -1 -1 -1 -1 -1 -1 -1 -1 -1 -1
 MicOpt= -1 -1 -1 -1 -1 -1 -1 -1 -1 -1 -1
 NAtoms=    171 NQM=      171 NQMF=       0 NMMI=      0 NMMIF=      0
                NMic=       0 NMicF=      0.
                    Isotopes and Nuclear Properties:
 (Nuclear quadrupole moments (NQMom) in fm**2, nuclear magnetic moments (NMagM)
  in nuclear magnetons)

  Atom         1           2           3           4           5           6           7           8           9          10
 IAtWgt=           1          14          12           1          14          12          12          16          14           1
 AtmWgt=   1.0078250  14.0030740  12.0000000   1.0078250  14.0030740  12.0000000  12.0000000  15.9949146  14.0030740   1.0078250
 NucSpn=           1           2           0           1           2           0           0           0           2           1
 AtZEff=   0.0000000   0.0000000   0.0000000   0.0000000   0.0000000   0.0000000   0.0000000   0.0000000   0.0000000   0.0000000
 NQMom=    0.0000000   2.0440000   0.0000000   0.0000000   2.0440000   0.0000000   0.0000000   0.0000000   2.0440000   0.0000000
 NMagM=    2.7928460   0.4037610   0.0000000   2.7928460   0.4037610   0.0000000   0.0000000   0.0000000   0.4037610   2.7928460
 AtZNuc=   1.0000000   7.0000000   6.0000000   1.0000000   7.0000000   6.0000000   6.0000000   8.0000000   7.0000000   1.0000000

  Atom        11          12          13          14          15          16          17          18          19          20
 IAtWgt=          12          14           1           1          14          12           1          14          12           1
 AtmWgt=  12.0000000  14.0030740   1.0078250   1.0078250  14.0030740  12.0000000   1.0078250  14.0030740  12.0000000   1.0078250
 NucSpn=           0           2           1           1           2           0           1           2           0           1
 AtZEff=   0.0000000   0.0000000   0.0000000   0.0000000   0.0000000   0.0000000   0.0000000   0.0000000   0.0000000   0.0000000
 NQMom=    0.0000000   2.0440000   0.0000000   0.0000000   2.0440000   0.0000000   0.0000000   2.0440000   0.0000000   0.0000000
 NMagM=    0.0000000   0.4037610   2.7928460   2.7928460   0.4037610   0.0000000   2.7928460   0.4037610   0.0000000   2.7928460
 AtZNuc=   6.0000000   7.0000000   1.0000000   1.0000000   7.0000000   6.0000000   1.0000000   7.0000000   6.0000000   1.0000000

  Atom        21          22          23          24          25          26          27          28          29          30
 IAtWgt=          14          12          12          16          14           1          12          14           1           1
 AtmWgt=  14.0030740  12.0000000  12.0000000  15.9949146  14.0030740   1.0078250  12.0000000  14.0030740   1.0078250   1.0078250
 NucSpn=           2           0           0           0           2           1           0           2           1           1
 AtZEff=   0.0000000   0.0000000   0.0000000   0.0000000   0.0000000   0.0000000   0.0000000   0.0000000   0.0000000   0.0000000
 NQMom=    2.0440000   0.0000000   0.0000000   0.0000000   2.0440000   0.0000000   0.0000000   2.0440000   0.0000000   0.0000000
 NMagM=    0.4037610   0.0000000   0.0000000   0.0000000   0.4037610   2.7928460   0.0000000   0.4037610   2.7928460   2.7928460
 AtZNuc=   7.0000000   6.0000000   6.0000000   8.0000000   7.0000000   1.0000000   6.0000000   7.0000000   1.0000000   1.0000000

  Atom        31          32          33          34          35          36          37          38          39          40
 IAtWgt=          14          12           1          14          12           1          12           1          12          14
 AtmWgt=  14.0030740  12.0000000   1.0078250  14.0030740  12.0000000   1.0078250  12.0000000   1.0078250  12.0000000  14.0030740
 NucSpn=           2           0           1           2           0           1           0           1           0           2
 AtZEff=   0.0000000   0.0000000   0.0000000   0.0000000   0.0000000   0.0000000   0.0000000   0.0000000   0.0000000   0.0000000
 NQMom=    2.0440000   0.0000000   0.0000000   2.0440000   0.0000000   0.0000000   0.0000000   0.0000000   0.0000000   2.0440000
 NMagM=    0.4037610   0.0000000   2.7928460   0.4037610   0.0000000   2.7928460   0.0000000   2.7928460   0.0000000   0.4037610
 AtZNuc=   7.0000000   6.0000000   1.0000000   7.0000000   6.0000000   1.0000000   6.0000000   1.0000000   6.0000000   7.0000000

  Atom        41          42          43          44          45          46          47          48          49          50
 IAtWgt=           1           1          14          12          16           1          14          12           1          14
 AtmWgt=   1.0078250   1.0078250  14.0030740  12.0000000  15.9949146   1.0078250  14.0030740  12.0000000   1.0078250  14.0030740
 NucSpn=           1           1           2           0           0           1           2           0           1           2
 AtZEff=   0.0000000   0.0000000   0.0000000   0.0000000   0.0000000   0.0000000   0.0000000   0.0000000   0.0000000   0.0000000
 NQMom=    0.0000000   0.0000000   2.0440000   0.0000000   0.0000000   0.0000000   2.0440000   0.0000000   0.0000000   2.0440000
 NMagM=    2.7928460   2.7928460   0.4037610   0.0000000   0.0000000   2.7928460   0.4037610   0.0000000   2.7928460   0.4037610
 AtZNuc=   1.0000000   1.0000000   7.0000000   6.0000000   8.0000000   1.0000000   7.0000000   6.0000000   1.0000000   7.0000000

  Atom        51          52          53          54          55          56          57          58          59          60
 IAtWgt=          12          12          14           1           1          14          12           1          14          12
 AtmWgt=  12.0000000  12.0000000  14.0030740   1.0078250   1.0078250  14.0030740  12.0000000   1.0078250  14.0030740  12.0000000
 NucSpn=           0           0           2           1           1           2           0           1           2           0
 AtZEff=   0.0000000   0.0000000   0.0000000   0.0000000   0.0000000   0.0000000   0.0000000   0.0000000   0.0000000   0.0000000
 NQMom=    0.0000000   0.0000000   2.0440000   0.0000000   0.0000000   2.0440000   0.0000000   0.0000000   2.0440000   0.0000000
 NMagM=    0.0000000   0.0000000   0.4037610   2.7928460   2.7928460   0.4037610   0.0000000   2.7928460   0.4037610   0.0000000
 AtZNuc=   6.0000000   6.0000000   7.0000000   1.0000000   1.0000000   7.0000000   6.0000000   1.0000000   7.0000000   6.0000000

  Atom        61          62          63          64          65          66          67          68          69          70
 IAtWgt=           1          14          12           1          12           1          12          14           1           1
 AtmWgt=   1.0078250  14.0030740  12.0000000   1.0078250  12.0000000   1.0078250  12.0000000  14.0030740   1.0078250   1.0078250
 NucSpn=           1           2           0           1           0           1           0           2           1           1
 AtZEff=   0.0000000   0.0000000   0.0000000   0.0000000   0.0000000   0.0000000   0.0000000   0.0000000   0.0000000   0.0000000
 NQMom=    0.0000000   2.0440000   0.0000000   0.0000000   0.0000000   0.0000000   0.0000000   2.0440000   0.0000000   0.0000000
 NMagM=    2.7928460   0.4037610   0.0000000   2.7928460   0.0000000   2.7928460   0.0000000   0.4037610   2.7928460   2.7928460
 AtZNuc=   1.0000000   7.0000000   6.0000000   1.0000000   6.0000000   1.0000000   6.0000000   7.0000000   1.0000000   1.0000000

  Atom        71          72          73          74          75          76          77          78          79          80
 IAtWgt=          14          12          16           1          14          12           1          12           1          12
 AtmWgt=  14.0030740  12.0000000  15.9949146   1.0078250  14.0030740  12.0000000   1.0078250  12.0000000   1.0078250  12.0000000
 NucSpn=           2           0           0           1           2           0           1           0           1           0
 AtZEff=   0.0000000   0.0000000   0.0000000   0.0000000   0.0000000   0.0000000   0.0000000   0.0000000   0.0000000   0.0000000
 NQMom=    2.0440000   0.0000000   0.0000000   0.0000000   2.0440000   0.0000000   0.0000000   0.0000000   0.0000000   0.0000000
 NMagM=    0.4037610   0.0000000   0.0000000   2.7928460   0.4037610   0.0000000   2.7928460   0.0000000   2.7928460   0.0000000
 AtZNuc=   7.0000000   6.0000000   8.0000000   1.0000000   7.0000000   6.0000000   1.0000000   6.0000000   1.0000000   6.0000000

  Atom        81          82          83          84          85          86          87          88          89          90
 IAtWgt=          16          14           1          12          16           1          14          12           1          14
 AtmWgt=  15.9949146  14.0030740   1.0078250  12.0000000  15.9949146   1.0078250  14.0030740  12.0000000   1.0078250  14.0030740
 NucSpn=           0           2           1           0           0           1           2           0           1           2
 AtZEff=   0.0000000   0.0000000   0.0000000   0.0000000   0.0000000   0.0000000   0.0000000   0.0000000   0.0000000   0.0000000
 NQMom=    0.0000000   2.0440000   0.0000000   0.0000000   0.0000000   0.0000000   2.0440000   0.0000000   0.0000000   2.0440000
 NMagM=    0.0000000   0.4037610   2.7928460   0.0000000   0.0000000   2.7928460   0.4037610   0.0000000   2.7928460   0.4037610
 AtZNuc=   8.0000000   7.0000000   1.0000000   6.0000000   8.0000000   1.0000000   7.0000000   6.0000000   1.0000000   7.0000000

  Atom        91          92          93          94          95          96          97          98          99         100
 IAtWgt=          12          12          16          14           1          12          14           1           1          14
 AtmWgt=  12.0000000  12.0000000  15.9949146  14.0030740   1.0078250  12.0000000  14.0030740   1.0078250   1.0078250  14.0030740
 NucSpn=           0           0           0           2           1           0           2           1           1           2
 AtZEff=   0.0000000   0.0000000   0.0000000   0.0000000   0.0000000   0.0000000   0.0000000   0.0000000   0.0000000   0.0000000
 NQMom=    0.0000000   0.0000000   0.0000000   2.0440000   0.0000000   0.0000000   2.0440000   0.0000000   0.0000000   2.0440000
 NMagM=    0.0000000   0.0000000   0.0000000   0.4037610   2.7928460   0.0000000   0.4037610   2.7928460   2.7928460   0.4037610
 AtZNuc=   6.0000000   6.0000000   8.0000000   7.0000000   1.0000000   6.0000000   7.0000000   1.0000000   1.0000000   7.0000000

  Atom       101         102         103         104         105         106         107         108         109         110
 IAtWgt=          12           1          14          12           1          14          12          12          16          14
 AtmWgt=  12.0000000   1.0078250  14.0030740  12.0000000   1.0078250  14.0030740  12.0000000  12.0000000  15.9949146  14.0030740
 NucSpn=           0           1           2           0           1           2           0           0           0           2
 AtZEff=   0.0000000   0.0000000   0.0000000   0.0000000   0.0000000   0.0000000   0.0000000   0.0000000   0.0000000   0.0000000
 NQMom=    0.0000000   0.0000000   2.0440000   0.0000000   0.0000000   2.0440000   0.0000000   0.0000000   0.0000000   2.0440000
 NMagM=    0.0000000   2.7928460   0.4037610   0.0000000   2.7928460   0.4037610   0.0000000   0.0000000   0.0000000   0.4037610
 AtZNuc=   6.0000000   1.0000000   7.0000000   6.0000000   1.0000000   7.0000000   6.0000000   6.0000000   8.0000000   7.0000000

  Atom       111         112         113         114         115         116         117         118         119         120
 IAtWgt=           1          12          14           1           1          14          12           1          14          12
 AtmWgt=   1.0078250  12.0000000  14.0030740   1.0078250   1.0078250  14.0030740  12.0000000   1.0078250  14.0030740  12.0000000
 NucSpn=           1           0           2           1           1           2           0           1           2           0
 AtZEff=   0.0000000   0.0000000   0.0000000   0.0000000   0.0000000   0.0000000   0.0000000   0.0000000   0.0000000   0.0000000
 NQMom=    0.0000000   0.0000000   2.0440000   0.0000000   0.0000000   2.0440000   0.0000000   0.0000000   2.0440000   0.0000000
 NMagM=    2.7928460   0.0000000   0.4037610   2.7928460   2.7928460   0.4037610   0.0000000   2.7928460   0.4037610   0.0000000
 AtZNuc=   1.0000000   6.0000000   7.0000000   1.0000000   1.0000000   7.0000000   6.0000000   1.0000000   7.0000000   6.0000000

  Atom       121         122         123         124         125         126         127         128         129         130
 IAtWgt=           1          12           1          12          16          14           1          12          16           1
 AtmWgt=   1.0078250  12.0000000   1.0078250  12.0000000  15.9949146  14.0030740   1.0078250  12.0000000  15.9949146   1.0078250
 NucSpn=           1           0           1           0           0           2           1           0           0           1
 AtZEff=   0.0000000   0.0000000   0.0000000   0.0000000   0.0000000   0.0000000   0.0000000   0.0000000   0.0000000   0.0000000
 NQMom=    0.0000000   0.0000000   0.0000000   0.0000000   0.0000000   2.0440000   0.0000000   0.0000000   0.0000000   0.0000000
 NMagM=    2.7928460   0.0000000   2.7928460   0.0000000   0.0000000   0.4037610   2.7928460   0.0000000   0.0000000   2.7928460
 AtZNuc=   1.0000000   6.0000000   1.0000000   6.0000000   8.0000000   7.0000000   1.0000000   6.0000000   8.0000000   1.0000000

  Atom       131         132         133         134         135         136         137         138         139         140
 IAtWgt=          14          12           1          14          12          12          16          14           1          12
 AtmWgt=  14.0030740  12.0000000   1.0078250  14.0030740  12.0000000  12.0000000  15.9949146  14.0030740   1.0078250  12.0000000
 NucSpn=           2           0           1           2           0           0           0           2           1           0
 AtZEff=   0.0000000   0.0000000   0.0000000   0.0000000   0.0000000   0.0000000   0.0000000   0.0000000   0.0000000   0.0000000
 NQMom=    2.0440000   0.0000000   0.0000000   2.0440000   0.0000000   0.0000000   0.0000000   2.0440000   0.0000000   0.0000000
 NMagM=    0.4037610   0.0000000   2.7928460   0.4037610   0.0000000   0.0000000   0.0000000   0.4037610   2.7928460   0.0000000
 AtZNuc=   7.0000000   6.0000000   1.0000000   7.0000000   6.0000000   6.0000000   8.0000000   7.0000000   1.0000000   6.0000000

  Atom       141         142         143         144         145         146         147         148         149         150
 IAtWgt=          14           1           1          14          12           1          14          12           1          12
 AtmWgt=  14.0030740   1.0078250   1.0078250  14.0030740  12.0000000   1.0078250  14.0030740  12.0000000   1.0078250  12.0000000
 NucSpn=           2           1           1           2           0           1           2           0           1           0
 AtZEff=   0.0000000   0.0000000   0.0000000   0.0000000   0.0000000   0.0000000   0.0000000   0.0000000   0.0000000   0.0000000
 NQMom=    2.0440000   0.0000000   0.0000000   2.0440000   0.0000000   0.0000000   2.0440000   0.0000000   0.0000000   0.0000000
 NMagM=    0.4037610   2.7928460   2.7928460   0.4037610   0.0000000   2.7928460   0.4037610   0.0000000   2.7928460   0.0000000
 AtZNuc=   7.0000000   1.0000000   1.0000000   7.0000000   6.0000000   1.0000000   7.0000000   6.0000000   1.0000000   6.0000000

  Atom       151         152         153         154         155         156         157         158         159         160
 IAtWgt=           1          12          14           1           1          14          12          16           1          14
 AtmWgt=   1.0078250  12.0000000  14.0030740   1.0078250   1.0078250  14.0030740  12.0000000  15.9949146   1.0078250  14.0030740
 NucSpn=           1           0           2           1           1           2           0           0           1           2
 AtZEff=   0.0000000   0.0000000   0.0000000   0.0000000   0.0000000   0.0000000   0.0000000   0.0000000   0.0000000   0.0000000
 NQMom=    0.0000000   0.0000000   2.0440000   0.0000000   0.0000000   2.0440000   0.0000000   0.0000000   0.0000000   2.0440000
 NMagM=    2.7928460   0.0000000   0.4037610   2.7928460   2.7928460   0.4037610   0.0000000   0.0000000   2.7928460   0.4037610
 AtZNuc=   1.0000000   6.0000000   7.0000000   1.0000000   1.0000000   7.0000000   6.0000000   8.0000000   1.0000000   7.0000000

  Atom       161         162         163         164         165         166         167         168         169         170
 IAtWgt=          12           1          12           1          12          14           1           1          14          12
 AtmWgt=  12.0000000   1.0078250  12.0000000   1.0078250  12.0000000  14.0030740   1.0078250   1.0078250  14.0030740  12.0000000
 NucSpn=           0           1           0           1           0           2           1           1           2           0
 AtZEff=   0.0000000   0.0000000   0.0000000   0.0000000   0.0000000   0.0000000   0.0000000   0.0000000   0.0000000   0.0000000
 NQMom=    0.0000000   0.0000000   0.0000000   0.0000000   0.0000000   2.0440000   0.0000000   0.0000000   2.0440000   0.0000000
 NMagM=    0.0000000   2.7928460   0.0000000   2.7928460   0.0000000   0.4037610   2.7928460   2.7928460   0.4037610   0.0000000
 AtZNuc=   6.0000000   1.0000000   6.0000000   1.0000000   6.0000000   7.0000000   1.0000000   1.0000000   7.0000000   6.0000000

  Atom       171
 IAtWgt=          16
 AtmWgt=  15.9949146
 NucSpn=           0
 AtZEff=   0.0000000
 NQMom=    0.0000000
 NMagM=    0.0000000
 AtZNuc=   8.0000000
 Leave Link  101 at Fri Sep 11 17:35:03 2015, MaxMem= 17179869184 cpu:               1.6 elap:               0.1
 (Enter /cm/shared/apps/gaussian/gdvH36/gdv/l202.exe)
 Symmetry turned off by external request.
 Stoichiometry    C54H58N46O13
 Framework group  C1[X(C54H58N46O13)]
 Deg. of freedom   507
 Full point group                 C1      NOp   1
                          Input orientation:                          
 ---------------------------------------------------------------------
 Center     Atomic      Atomic             Coordinates (Angstroms)
 Number     Number       Type             X           Y           Z
 ---------------------------------------------------------------------
      1          1           0      -12.667467   -3.353724    5.248203
      2          7           0      -12.316166   -2.409844    5.280387
      3          6           0      -11.871553   -1.705141    6.386677
      4          1           0      -11.866472   -2.144962    7.373491
      5          7           0      -11.478989   -0.498089    6.091357
      6          6           0      -11.669952   -0.392016    4.727138
      7          6           0      -11.417719    0.706422    3.835104
      8          8           0      -10.977316    1.818265    4.030831
      9          7           0      -11.783307    0.325837    2.492893
     10          1           0      -11.627145    1.062320    1.817897
     11          6           0      -12.293026   -0.883346    2.097449
     12          7           0      -12.575041   -1.045239    0.775619
     13          1           0      -12.948739   -1.930861    0.483777
     14          1           0      -12.427469   -0.327520    0.090455
     15          7           0      -12.517491   -1.876055    2.924331
     16          6           0      -12.191215   -1.573832    4.203647
     17          1           0       -9.955395   -4.757953    0.533299
     18          7           0       -9.575141   -4.013541    1.095986
     19          6           0       -9.327011   -4.019040    2.458545
     20          1           0       -9.537309   -4.885468    3.068747
     21          7           0       -8.829614   -2.892569    2.885107
     22          6           0       -8.741674   -2.099532    1.757203
     23          6           0       -8.268434   -0.751178    1.602610
     24          8           0       -7.825729    0.043855    2.402857
     25          7           0       -8.377825   -0.361974    0.218203
     26          1           0       -8.057985    0.581956    0.047583
     27          6           0       -8.853253   -1.131921   -0.811099
     28          7           0       -8.874969   -0.576943   -2.053880
     29          1           0       -9.223106   -1.139715   -2.809681
     30          1           0       -8.562373    0.357130   -2.243983
     31          7           0       -9.281626   -2.361231   -0.653352
     32          6           0       -9.201814   -2.781005    0.631897
     33          1           0       -6.014324   -3.839153   -3.254883
     34          7           0       -5.871283   -3.385462   -2.365135
     35          6           0       -5.978317   -4.066545   -1.200742
     36          1           0       -6.224487   -5.120208   -1.270024
     37          6           0       -5.780411   -3.429348   -0.020513
     38          1           0       -5.860073   -3.950784    0.923943
     39          6           0       -5.460448   -2.027272   -0.104933
     40          7           0       -5.250334   -1.330545    1.039714
     41          1           0       -5.027732   -0.352011    0.964427
     42          1           0       -5.309197   -1.755014    1.947477
     43          7           0       -5.355687   -1.362187   -1.236368
     44          6           0       -5.552845   -1.992473   -2.436255
     45          8           0       -5.480673   -1.475332   -3.531573
     46          1           0       -1.130827   -2.079514   -5.530398
     47          7           0       -1.059595   -2.233316   -4.537193
     48          6           0       -1.325687   -3.396027   -3.844042
     49          1           0       -1.653811   -4.292988   -4.349934
     50          7           0       -1.140117   -3.284529   -2.554775
     51          6           0       -0.728041   -1.973997   -2.386036
     52          6           0       -0.369199   -1.223962   -1.247538
     53          7           0       -0.380036   -1.750819   -0.003932
     54          1           0       -0.115245   -1.173399    0.775430
     55          1           0       -0.649224   -2.707928    0.141858
     56          7           0       -0.004537    0.057888   -1.407723
     57          6           0        0.002382    0.570026   -2.647217
     58          1           0        0.305732    1.611098   -2.716449
     59          7           0       -0.311471   -0.024394   -3.799063
     60          6           0       -0.669464   -1.296998   -3.605825
     61          1           0        3.304656   -0.962158   -5.015961
     62          7           0        3.187805   -1.592176   -4.236622
     63          6           0        2.801557   -2.876150   -4.419284
     64          1           0        2.624273   -3.194131   -5.440589
     65          6           0        2.653034   -3.699100   -3.352128
     66          1           0        2.345417   -4.729376   -3.471045
     67          6           0        2.928618   -3.118458   -2.062854
     68          7           0        2.798983   -3.888217   -0.953593
     69          1           0        2.994996   -3.468377   -0.060249
     70          1           0        2.517358   -4.850817   -0.995528
     71          7           0        3.304533   -1.869644   -1.882268
     72          6           0        3.458738   -1.026671   -2.950667
     73          8           0        3.799461    0.136607   -2.895377
     74          1           0        8.121536   -1.248791   -2.306912
     75          7           0        7.618315   -2.114429   -2.190886
     76          6           0        7.102593   -2.789445   -3.270869
     77          1           0        7.277991   -2.324522   -4.233705
     78          6           0        6.427963   -3.946746   -3.133368
     79          1           0        6.022894   -4.476710   -3.982880
     80          6           0        6.226420   -4.519888   -1.807057
     81          8           0        5.639677   -5.550314   -1.552443
     82          7           0        6.796525   -3.745692   -0.771442
     83          1           0        6.681608   -4.104746    0.167115
     84          6           0        7.494800   -2.554974   -0.873378
     85          8           0        7.955171   -1.948157    0.066682
     86          1           0       10.972670    0.660444    6.207044
     87          7           0       10.907990    0.897613    5.229841
     88          6           0       11.496871    1.965330    4.573056
     89          1           0       12.116815    2.679254    5.095790
     90          7           0       11.216060    1.991722    3.300758
     91          6           0       10.403493    0.892717    3.098934
     92          6           0        9.780996    0.403801    1.899196
     93          8           0        9.797720    0.813050    0.758715
     94          7           0        9.024503   -0.785719    2.203807
     95          1           0        8.561854   -1.176816    1.394232
     96          6           0        8.898822   -1.381051    3.431854
     97          7           0        8.134952   -2.504985    3.510921
     98          1           0        8.041599   -2.942835    4.410210
     99          1           0        7.667979   -2.908638    2.720131
    100          7           0        9.473593   -0.922153    4.517505
    101          6           0       10.200001    0.198118    4.289971
    102          1           0        6.231063    1.829121    4.155579
    103          7           0        5.710981    0.986259    3.969954
    104          6           0        5.296650    0.025382    4.877264
    105          1           0        5.514893    0.111186    5.931910
    106          7           0        4.639654   -0.949393    4.314711
    107          6           0        4.614114   -0.625021    2.971974
    108          6           0        4.031231   -1.321114    1.857696
    109          8           0        3.414804   -2.362316    1.791552
    110          7           0        4.272913   -0.573997    0.647971
    111          1           0        3.883950   -1.017151   -0.173452
    112          6           0        4.947699    0.614303    0.543458
    113          7           0        5.068569    1.162173   -0.696786
    114          1           0        5.562845    2.033177   -0.775470
    115          1           0        4.690175    0.738693   -1.523726
    116          7           0        5.473979    1.237048    1.570496
    117          6           0        5.276924    0.578357    2.737433
    118          1           0        2.019248    4.273367    1.297505
    119          7           0        1.701446    3.348267    1.540847
    120          6           0        1.759403    2.892252    2.835711
    121          1           0        2.165346    3.593279    3.555255
    122          6           0        1.339125    1.659450    3.177678
    123          1           0        1.385046    1.301790    4.195806
    124          6           0        0.802285    0.763652    2.159071
    125          8           0        0.393549   -0.363968    2.338742
    126          7           0        0.788859    1.332705    0.865666
    127          1           0        0.424419    0.747107    0.125886
    128          6           0        1.210944    2.592141    0.476497
    129          8           0        1.166892    3.009068   -0.658454
    130          1           0       -2.577266    5.565840   -1.422823
    131          7           0       -2.817957    4.899157   -0.706611
    132          6           0       -2.704620    5.047171    0.665763
    133          1           0       -2.321210    5.955584    1.107411
    134          7           0       -3.103526    3.993834    1.321241
    135          6           0       -3.500936    3.102756    0.343051
    136          6           0       -4.032712    1.772301    0.457134
    137          8           0       -4.273503    1.081146    1.422943
    138          7           0       -4.295571    1.247992   -0.860452
    139          1           0       -4.672939    0.310060   -0.843483
    140          6           0       -4.083135    1.890714   -2.052130
    141          7           0       -4.398262    1.219650   -3.193771
    142          1           0       -4.243270    1.689067   -4.068284
    143          1           0       -4.773426    0.289285   -3.198414
    144          7           0       -3.596938    3.105464   -2.139203
    145          6           0       -3.330402    3.649188   -0.927688
    146          1           0       -7.586902    4.488546   -2.908751
    147          7           0       -7.520841    4.197787   -1.944882
    148          6           0       -7.187784    5.070715   -0.966000
    149          1           0       -6.995938    6.094612   -1.266726
    150          6           0       -7.107002    4.650238    0.320390
    151          1           0       -6.842851    5.327802    1.121246
    152          6           0       -7.392819    3.256940    0.549190
    153          7           0       -7.329704    2.771720    1.814248
    154          1           0       -7.532011    1.796455    1.958048
    155          1           0       -7.090655    3.347538    2.600989
    156          7           0       -7.717083    2.405495   -0.401258
    157          6           0       -7.802601    2.815745   -1.705192
    158          8           0       -8.092003    2.116068   -2.653381
    159          1           0      -12.931469    2.948953   -2.414114
    160          7           0      -12.449370    3.231045   -1.573905
    161          6           0      -11.953228    4.481927   -1.431498
    162          1           0      -12.098425    5.164282   -2.261507
    163          6           0      -11.309994    4.831640   -0.290412
    164          1           0      -10.904289    5.824807   -0.151628
    165          6           0      -11.202959    3.805371    0.714892
    166          7           0      -10.570793    4.090081    1.880696
    167          1           0      -10.504078    3.362867    2.573125
    168          1           0      -10.172741    4.991608    2.071682
    169          7           0      -11.684711    2.587627    0.578978
    170          6           0      -12.336807    2.219968   -0.567956
    171          8           0      -12.816575    1.128736   -0.794670
 ---------------------------------------------------------------------
 Rotational constants (GHZ):      0.0254035      0.0056807      0.0055126
 Leave Link  202 at Fri Sep 11 17:35:04 2015, MaxMem= 17179869184 cpu:               0.3 elap:               0.0
 (Enter /cm/shared/apps/gaussian/gdvH36/gdv/l122.exe)
 STEFANO
 EET: doing full-system calculation.
 Leave Link  122 at Fri Sep 11 17:35:04 2015, MaxMem= 17179869184 cpu:               0.0 elap:               0.0
 (Enter /cm/shared/apps/gaussian/gdvH36/gdv/l301.exe)
 Standard basis: 6-31G(d) (6D, 7F)
 Ernie: Thresh=  0.10000D-02 Tol=  0.10000D-05 Strict=F.
  1811 basis functions,  3396 primitive gaussians,  1811 cartesian basis functions
   404 alpha electrons      404 beta electrons
       nuclear repulsion energy     24034.4610266506 Hartrees.
 IExCor= 4336 DFT=T Ex+Corr=M062X ExCW=0 ScaHFX=  0.540000
 ScaDFX=  1.000000  1.000000  1.000000  1.000000 ScalE2=  1.000000  1.000000
 IRadAn=      0 IRanWt=     -1 IRanGd=            0 ICorTp=0 IEmpDi=  4
 NAtoms=  171 NActive=  171 NUniq=  171 SFac= 1.00D+00 NAtFMM=   60 NAOKFM=T Big=T
 Integral buffers will be    131072 words long.
 Regular integral format.
 Two-electron integral symmetry is turned off.
 Leave Link  301 at Fri Sep 11 17:35:04 2015, MaxMem= 17179869184 cpu:               0.7 elap:               0.1
 (Enter /cm/shared/apps/gaussian/gdvH36/gdv/l302.exe)
 NPDir=0 NMtPBC=     1 NCelOv=     1 NCel=       1 NClECP=     1 NCelD=      1
         NCelK=      1 NCelE2=     1 NClLst=     1 CellRange=     0.0.
 One-electron integrals computed using PRISM.
 One-electron integral symmetry used in STVInt
 NBasis=  1811 RedAO= T EigKep=  7.27D-04  NBF=  1811
 NBsUse=  1811 1.00D-06 EigRej= -1.00D+00 NBFU=  1811
 Precomputing XC quadrature grid using
 IXCGrd= 4 IRadAn=           0 IRanWt=          -1 IRanGd=           0 AccXCQ= 0.00D+00.
 Generated NRdTot=       0 NPtTot=           0 NUsed=           0 NTot=          32
 NSgBfM=   972   929   939   946   972 MxSgAt=   171 MxSgA2=   159.
 Leave Link  302 at Fri Sep 11 17:35:16 2015, MaxMem= 17179869184 cpu:             137.9 elap:              11.5
 (Enter /cm/shared/apps/gaussian/gdvH36/gdv/l308.exe)
 Leave Link  308 at Fri Sep 11 17:35:16 2015, MaxMem= 17179869184 cpu:               6.3 elap:               0.7
 (Enter /cm/shared/apps/gaussian/gdvH36/gdv/l303.exe)
 DipDrv:  MaxL=1.
 Leave Link  303 at Fri Sep 11 17:35:17 2015, MaxMem= 17179869184 cpu:               4.5 elap:               0.4
 (Enter /cm/shared/apps/gaussian/gdvH36/gdv/l401.exe)
 ExpMin= 1.61D-01 ExpMax= 5.48D+03 ExpMxC= 8.25D+02 IAcc=1 IRadAn=         1 AccDes= 0.00D+00
 Harris functional with IExCor= 1009 and IRadAn=       1 diagonalized for initial guess.
 HarFok:  IExCor= 1009 AccDes= 0.00D+00 IRadAn=         1 IDoV= 1 UseB2=F ITyADJ=14
 ICtDFT=  3500011 ScaDFX=  1.000000  1.000000  1.000000  1.000000
 FoFCou: FMM=F IPFlag=           0 FMFlag=      100000 FMFlg1=        2001
         NFxFlg=           0 DoJE=T BraDBF=F KetDBF=T FulRan=T
         wScrn=  0.000000 ICntrl=       500 IOpCl=  0 I1Cent=   200000004 NGrid=           0
         NMat0=    1 NMatS0=      1 NMatT0=    0 NMatD0=    1 NMtDS0=    0 NMtDT0=    0
 Symmetry not used in FoFCou.
 Harris En= -5584.05226358210    
 JPrj=0 DoOrth=F DoCkMO=F.
 Leave Link  401 at Fri Sep 11 17:35:26 2015, MaxMem= 17179869184 cpu:             113.1 elap:               9.5
 (Enter /cm/shared/apps/gaussian/gdvH36/gdv/l601.exe)
 Copying SCF densities to generalized density rwf, IOpCl= 0 IROHF=0.
 Hyperfine terms turned off by default for NAtoms > 100.

 **********************************************************************

            Population analysis using the SCF density.

 **********************************************************************

 Alpha  occ. eigenvalues --  -18.91471 -18.91466 -18.91363 -18.91348 -18.91254
 Alpha  occ. eigenvalues --  -18.91249 -18.91235 -18.91232 -18.91174 -18.91160
 Alpha  occ. eigenvalues --  -18.91159 -18.91146 -18.91142 -14.18043 -14.17996
 Alpha  occ. eigenvalues --  -14.17966 -14.17955 -14.17955 -14.17818 -14.17815
 Alpha  occ. eigenvalues --  -14.17814 -14.17812 -14.17809 -14.16814 -14.16813
 Alpha  occ. eigenvalues --  -14.16812 -14.16812 -14.16812 -14.16777 -14.16695
 Alpha  occ. eigenvalues --  -14.16694 -14.16591 -14.16590 -14.16590 -14.16589
 Alpha  occ. eigenvalues --  -14.16235 -14.16227 -14.16077 -14.16065 -14.16063
 Alpha  occ. eigenvalues --  -14.16055 -14.16054 -14.14331 -14.14271 -14.14231
 Alpha  occ. eigenvalues --  -14.14227 -14.14227 -14.14227 -14.14226 -14.14198
 Alpha  occ. eigenvalues --  -14.14174 -14.14172 -14.14172 -14.14171 -14.14171
 Alpha  occ. eigenvalues --  -14.14157 -14.14127 -14.14122 -14.14068 -10.08723
 Alpha  occ. eigenvalues --  -10.08722 -10.08697 -10.08696 -10.08695 -10.08692
 Alpha  occ. eigenvalues --  -10.08148 -10.08146 -10.08145 -10.08145 -10.08075
 Alpha  occ. eigenvalues --  -10.08075 -10.06756 -10.06607 -10.06607 -10.06607
 Alpha  occ. eigenvalues --  -10.06606 -10.06606 -10.06598 -10.06540 -10.06535
 Alpha  occ. eigenvalues --  -10.06534 -10.06532 -10.06532 -10.06511 -10.06489
 Alpha  occ. eigenvalues --  -10.06484 -10.06458 -10.06443 -10.06422 -10.06420
 Alpha  occ. eigenvalues --  -10.06414 -10.06220 -10.06198 -10.06185 -10.06179
 Alpha  occ. eigenvalues --  -10.06175 -10.06143 -10.06032 -10.06027 -10.06026
 Alpha  occ. eigenvalues --  -10.06026 -10.06025 -10.05814 -10.05802 -10.05563
 Alpha  occ. eigenvalues --  -10.05562 -10.05560 -10.05557 -10.05265 -10.05263
 Alpha  occ. eigenvalues --  -10.05262 -10.05261 -10.05261  -1.09679  -1.09553
 Alpha  occ. eigenvalues --   -1.09279  -1.09185  -1.09170  -1.09104  -1.09066
 Alpha  occ. eigenvalues --   -1.09041  -1.08873  -1.08868  -1.08804  -1.08784
 Alpha  occ. eigenvalues --   -1.08660  -1.04250  -1.04127  -1.04115  -1.04108
 Alpha  occ. eigenvalues --   -1.04095  -1.04093  -1.00244  -1.00231  -1.00222
 Alpha  occ. eigenvalues --   -1.00219  -1.00214  -0.99851  -0.99455  -0.99445
 Alpha  occ. eigenvalues --   -0.99404  -0.99367  -0.97308  -0.97260  -0.95739
 Alpha  occ. eigenvalues --   -0.95275  -0.95254  -0.95220  -0.95196  -0.92233
 Alpha  occ. eigenvalues --   -0.92211  -0.92210  -0.92195  -0.92192  -0.91438
 Alpha  occ. eigenvalues --   -0.91319  -0.90829  -0.90822  -0.90800  -0.90795
 Alpha  occ. eigenvalues --   -0.90771  -0.90370  -0.89523  -0.89487  -0.89439
 Alpha  occ. eigenvalues --   -0.89427  -0.88955  -0.88918  -0.88905  -0.88904
 Alpha  occ. eigenvalues --   -0.88895  -0.88573  -0.82950  -0.82941  -0.82350
 Alpha  occ. eigenvalues --   -0.82336  -0.82335  -0.82323  -0.79981  -0.79143
 Alpha  occ. eigenvalues --   -0.79140  -0.79123  -0.79118  -0.79112  -0.70560
 Alpha  occ. eigenvalues --   -0.70365  -0.70333  -0.70221  -0.70153  -0.70021
 Alpha  occ. eigenvalues --   -0.70001  -0.69664  -0.69466  -0.69454  -0.69407
 Alpha  occ. eigenvalues --   -0.69359  -0.69025  -0.68764  -0.68755  -0.68728
 Alpha  occ. eigenvalues --   -0.68701  -0.68290  -0.68174  -0.68149  -0.68139
 Alpha  occ. eigenvalues --   -0.68129  -0.67603  -0.67553  -0.65465  -0.65351
 Alpha  occ. eigenvalues --   -0.65344  -0.65329  -0.65324  -0.65320  -0.63169
 Alpha  occ. eigenvalues --   -0.63014  -0.62999  -0.62995  -0.62952  -0.62928
 Alpha  occ. eigenvalues --   -0.61884  -0.61876  -0.61433  -0.61407  -0.61314
 Alpha  occ. eigenvalues --   -0.61305  -0.60474  -0.60231  -0.60180  -0.60147
 Alpha  occ. eigenvalues --   -0.60143  -0.59828  -0.59142  -0.59045  -0.58938
 Alpha  occ. eigenvalues --   -0.58913  -0.58874  -0.58839  -0.58053  -0.57559
 Alpha  occ. eigenvalues --   -0.57403  -0.57349  -0.57347  -0.57038  -0.57038
 Alpha  occ. eigenvalues --   -0.57017  -0.56999  -0.56279  -0.55938  -0.55814
 Alpha  occ. eigenvalues --   -0.55737  -0.55598  -0.55567  -0.55497  -0.54723
 Alpha  occ. eigenvalues --   -0.54639  -0.54531  -0.54499  -0.54120  -0.54074
 Alpha  occ. eigenvalues --   -0.53424  -0.53377  -0.53268  -0.53262  -0.53003
 Alpha  occ. eigenvalues --   -0.52936  -0.52670  -0.52540  -0.52162  -0.52098
 Alpha  occ. eigenvalues --   -0.52075  -0.51939  -0.51896  -0.50983  -0.50912
 Alpha  occ. eigenvalues --   -0.50874  -0.50863  -0.50827  -0.50720  -0.50659
 Alpha  occ. eigenvalues --   -0.50526  -0.50458  -0.50438  -0.50391  -0.50389
 Alpha  occ. eigenvalues --   -0.50319  -0.50195  -0.50135  -0.50104  -0.49884
 Alpha  occ. eigenvalues --   -0.49809  -0.49801  -0.49585  -0.49416  -0.49407
 Alpha  occ. eigenvalues --   -0.49331  -0.49270  -0.49221  -0.49156  -0.49104
 Alpha  occ. eigenvalues --   -0.49003  -0.48958  -0.48888  -0.48726  -0.48681
 Alpha  occ. eigenvalues --   -0.48626  -0.48617  -0.48041  -0.48017  -0.48013
 Alpha  occ. eigenvalues --   -0.47875  -0.47774  -0.47641  -0.46984  -0.46894
 Alpha  occ. eigenvalues --   -0.46219  -0.46080  -0.46027  -0.45971  -0.45828
 Alpha  occ. eigenvalues --   -0.45815  -0.45692  -0.44567  -0.44416  -0.44385
 Alpha  occ. eigenvalues --   -0.44372  -0.44322  -0.44231  -0.43649  -0.43365
 Alpha  occ. eigenvalues --   -0.43284  -0.43046  -0.41070  -0.40785  -0.40684
 Alpha  occ. eigenvalues --   -0.40481  -0.40340  -0.40214  -0.40135  -0.38885
 Alpha  occ. eigenvalues --   -0.38650  -0.38626  -0.38584  -0.38572  -0.38321
 Alpha  occ. eigenvalues --   -0.37982  -0.37813  -0.37570  -0.37569  -0.37550
 Alpha  occ. eigenvalues --   -0.37541  -0.36801  -0.36625  -0.36621  -0.36611
 Alpha  occ. eigenvalues --   -0.36575  -0.36542  -0.36443  -0.36335  -0.36323
 Alpha  occ. eigenvalues --   -0.36081  -0.36052  -0.35686  -0.35656  -0.34939
 Alpha  occ. eigenvalues --   -0.34904  -0.34880  -0.34873  -0.34781  -0.34399
 Alpha  occ. eigenvalues --   -0.34380  -0.34359  -0.34031  -0.34018  -0.33995
 Alpha  occ. eigenvalues --   -0.33970  -0.33936  -0.33927  -0.33915  -0.33850
 Alpha  occ. eigenvalues --   -0.33813  -0.33116  -0.33081  -0.32830  -0.32817
 Alpha  occ. eigenvalues --   -0.32765  -0.32650  -0.32633  -0.32577  -0.32447
 Alpha  occ. eigenvalues --   -0.32409  -0.32173  -0.31409  -0.31356  -0.30596
 Alpha  occ. eigenvalues --   -0.30543  -0.30525  -0.30509  -0.28737  -0.27775
 Alpha  occ. eigenvalues --   -0.27706  -0.27702  -0.27662  -0.27634
 Alpha virt. eigenvalues --   -0.14688  -0.14655  -0.14328  -0.14249  -0.14185
 Alpha virt. eigenvalues --   -0.14166  -0.13398  -0.12427  -0.12382  -0.12368
 Alpha virt. eigenvalues --   -0.12309  -0.12280  -0.11608  -0.10374  -0.10325
 Alpha virt. eigenvalues --   -0.10259  -0.10203  -0.09660  -0.09569  -0.09543
 Alpha virt. eigenvalues --   -0.09533  -0.09514  -0.09413  -0.09386  -0.07800
 Alpha virt. eigenvalues --   -0.07122  -0.07091  -0.07073  -0.07036  -0.07029
 Alpha virt. eigenvalues --   -0.01068  -0.00513  -0.00228  -0.00133   0.00142
 Alpha virt. eigenvalues --    0.00217   0.00344   0.00423   0.00439   0.00680
 Alpha virt. eigenvalues --    0.00707   0.00805   0.00831   0.01132   0.01296
 Alpha virt. eigenvalues --    0.01875   0.02213   0.02296   0.02406   0.02698
 Alpha virt. eigenvalues --    0.02776   0.02901   0.02924   0.02968   0.03090
 Alpha virt. eigenvalues --    0.03094   0.03141   0.03193   0.03215   0.03244
 Alpha virt. eigenvalues --    0.03296   0.03363   0.03418   0.03577   0.03619
 Alpha virt. eigenvalues --    0.04432   0.04473   0.04619   0.04724   0.04769
 Alpha virt. eigenvalues --    0.04826   0.04882   0.04942   0.04948   0.04995
 Alpha virt. eigenvalues --    0.05187   0.05211   0.05468   0.05527   0.05659
 Alpha virt. eigenvalues --    0.05704   0.05809   0.05857   0.05872   0.06045
 Alpha virt. eigenvalues --    0.06402   0.06484   0.07003   0.07331   0.07522
 Alpha virt. eigenvalues --    0.07664   0.07736   0.07843   0.08103   0.08129
 Alpha virt. eigenvalues --    0.08162   0.08440   0.08879   0.09023   0.09039
 Alpha virt. eigenvalues --    0.09089   0.09106   0.09197   0.09434   0.09478
 Alpha virt. eigenvalues --    0.09529   0.09596   0.09714   0.09840   0.09967
 Alpha virt. eigenvalues --    0.10170   0.10338   0.10653   0.10685   0.10690
 Alpha virt. eigenvalues --    0.10787   0.10994   0.11290   0.11930   0.12241
 Alpha virt. eigenvalues --    0.12602   0.12720   0.12839   0.12945   0.12988
 Alpha virt. eigenvalues --    0.13101   0.13286   0.13502   0.13682   0.13780
 Alpha virt. eigenvalues --    0.14152   0.14187   0.14360   0.14364   0.14607
 Alpha virt. eigenvalues --    0.14780   0.15246   0.16005   0.16392   0.16453
 Alpha virt. eigenvalues --    0.16692   0.16755   0.16834   0.16882   0.17036
 Alpha virt. eigenvalues --    0.17188   0.17342   0.17475   0.17830   0.18442
 Alpha virt. eigenvalues --    0.18598   0.18690   0.18761   0.18871   0.18913
 Alpha virt. eigenvalues --    0.19428   0.19512   0.19624   0.19845   0.20052
 Alpha virt. eigenvalues --    0.20378   0.20619   0.20745   0.20854   0.21055
 Alpha virt. eigenvalues --    0.21316   0.21394   0.21802   0.21892   0.22055
 Alpha virt. eigenvalues --    0.22387   0.22575   0.22803   0.23008   0.23107
 Alpha virt. eigenvalues --    0.23343   0.23435   0.23604   0.23821   0.24635
 Alpha virt. eigenvalues --    0.24749   0.25075   0.25416   0.25562   0.25608
 Alpha virt. eigenvalues --    0.25731   0.25998   0.26213   0.26323   0.26434
 Alpha virt. eigenvalues --    0.27152   0.27348   0.28195   0.28231   0.28374
 Alpha virt. eigenvalues --    0.28766   0.28985   0.29189   0.29952   0.30178
 Alpha virt. eigenvalues --    0.30308   0.30362   0.30579   0.30897   0.31376
 Alpha virt. eigenvalues --    0.31416   0.31525   0.32061   0.32957   0.33006
 Alpha virt. eigenvalues --    0.33154   0.33994   0.34469   0.34768   0.35102
 Alpha virt. eigenvalues --    0.35317   0.35428   0.35552   0.35683   0.35914
 Alpha virt. eigenvalues --    0.36026   0.36248   0.36257   0.36299   0.36457
 Alpha virt. eigenvalues --    0.36541   0.36661   0.37223   0.37402   0.37542
 Alpha virt. eigenvalues --    0.38031   0.38150   0.38454   0.38775   0.38959
 Alpha virt. eigenvalues --    0.39330   0.39457   0.39516   0.39652   0.39966
 Alpha virt. eigenvalues --    0.40016   0.40496   0.40540   0.40630   0.40912
 Alpha virt. eigenvalues --    0.40965   0.41085   0.41252   0.41483   0.41551
 Alpha virt. eigenvalues --    0.41637   0.41814   0.42246   0.42373   0.42661
 Alpha virt. eigenvalues --    0.42846   0.42895   0.43066   0.43245   0.43408
 Alpha virt. eigenvalues --    0.43472   0.43689   0.43923   0.44239   0.44406
 Alpha virt. eigenvalues --    0.44545   0.44816   0.44840   0.45011   0.45279
 Alpha virt. eigenvalues --    0.45454   0.45468   0.45584   0.45761   0.45800
 Alpha virt. eigenvalues --    0.45952   0.46013   0.46044   0.46268   0.46291
 Alpha virt. eigenvalues --    0.46451   0.46541   0.46639   0.46912   0.47050
 Alpha virt. eigenvalues --    0.47137   0.47259   0.47331   0.47425   0.47571
 Alpha virt. eigenvalues --    0.47615   0.47693   0.47839   0.47878   0.48001
 Alpha virt. eigenvalues --    0.48108   0.48138   0.48337   0.48533   0.48634
 Alpha virt. eigenvalues --    0.48825   0.48847   0.48978   0.49319   0.49449
 Alpha virt. eigenvalues --    0.49569   0.49670   0.49759   0.49828   0.49958
 Alpha virt. eigenvalues --    0.50124   0.50376   0.50469   0.50685   0.50732
 Alpha virt. eigenvalues --    0.50788   0.51040   0.51102   0.51228   0.51321
 Alpha virt. eigenvalues --    0.51369   0.51503   0.51639   0.51722   0.51813
 Alpha virt. eigenvalues --    0.51860   0.51951   0.51991   0.52083   0.52155
 Alpha virt. eigenvalues --    0.52245   0.52287   0.52512   0.52575   0.52678
 Alpha virt. eigenvalues --    0.52797   0.52894   0.53099   0.53189   0.53348
 Alpha virt. eigenvalues --    0.53520   0.53710   0.53928   0.54045   0.54206
 Alpha virt. eigenvalues --    0.54299   0.54344   0.54637   0.54723   0.54938
 Alpha virt. eigenvalues --    0.55548   0.55610   0.55866   0.55935   0.56135
 Alpha virt. eigenvalues --    0.56270   0.56428   0.56607   0.56905   0.56962
 Alpha virt. eigenvalues --    0.57214   0.57548   0.57796   0.58076   0.58163
 Alpha virt. eigenvalues --    0.58221   0.58464   0.58543   0.58825   0.59074
 Alpha virt. eigenvalues --    0.59391   0.59521   0.59926   0.60328   0.60531
 Alpha virt. eigenvalues --    0.60714   0.61194   0.61370   0.61588   0.61671
 Alpha virt. eigenvalues --    0.62048   0.62123   0.62606   0.62877   0.62971
 Alpha virt. eigenvalues --    0.63042   0.63301   0.63326   0.63451   0.63619
 Alpha virt. eigenvalues --    0.63906   0.64245   0.64444   0.64453   0.64715
 Alpha virt. eigenvalues --    0.65075   0.65142   0.65332   0.65403   0.65808
 Alpha virt. eigenvalues --    0.66018   0.66025   0.66156   0.66415   0.66662
 Alpha virt. eigenvalues --    0.66796   0.67081   0.67130   0.67323   0.67534
 Alpha virt. eigenvalues --    0.67665   0.67700   0.67828   0.67893   0.68097
 Alpha virt. eigenvalues --    0.68130   0.68285   0.68327   0.68536   0.68706
 Alpha virt. eigenvalues --    0.68856   0.68933   0.69007   0.69169   0.69354
 Alpha virt. eigenvalues --    0.69424   0.69498   0.69670   0.69860   0.69908
 Alpha virt. eigenvalues --    0.70150   0.70234   0.70256   0.70468   0.70608
 Alpha virt. eigenvalues --    0.70723   0.70883   0.70971   0.71006   0.71178
 Alpha virt. eigenvalues --    0.71346   0.71446   0.71522   0.71615   0.71840
 Alpha virt. eigenvalues --    0.71934   0.71988   0.72054   0.72149   0.72303
 Alpha virt. eigenvalues --    0.72734   0.72951   0.72995   0.73003   0.73282
 Alpha virt. eigenvalues --    0.73560   0.73744   0.74194   0.74295   0.74524
 Alpha virt. eigenvalues --    0.74775   0.74870   0.74911   0.75015   0.75239
 Alpha virt. eigenvalues --    0.75301   0.75368   0.75543   0.75697   0.75742
 Alpha virt. eigenvalues --    0.75850   0.75959   0.76102   0.76110   0.76165
 Alpha virt. eigenvalues --    0.76280   0.76351   0.76585   0.76679   0.76746
 Alpha virt. eigenvalues --    0.76816   0.77003   0.77158   0.77213   0.77308
 Alpha virt. eigenvalues --    0.77621   0.77960   0.77999   0.78093   0.78204
 Alpha virt. eigenvalues --    0.78410   0.78516   0.78551   0.78679   0.78909
 Alpha virt. eigenvalues --    0.79374   0.79433   0.79581   0.80094   0.80305
 Alpha virt. eigenvalues --    0.80369   0.80611   0.80642   0.80925   0.81133
 Alpha virt. eigenvalues --    0.81234   0.81677   0.81986   0.82177   0.82227
 Alpha virt. eigenvalues --    0.82328   0.82960   0.83065   0.83104   0.83222
 Alpha virt. eigenvalues --    0.83737   0.84377   0.84543   0.84681   0.84715
 Alpha virt. eigenvalues --    0.84877   0.85211   0.85470   0.86152   0.86262
 Alpha virt. eigenvalues --    0.86333   0.86618   0.87141   0.87230   0.87392
 Alpha virt. eigenvalues --    0.87488   0.87756   0.88027   0.88128   0.88232
 Alpha virt. eigenvalues --    0.88381   0.88835   0.88948   0.89056   0.89127
 Alpha virt. eigenvalues --    0.89565   0.89799   0.89849   0.90056   0.90240
 Alpha virt. eigenvalues --    0.90437   0.90539   0.90903   0.90974   0.91271
 Alpha virt. eigenvalues --    0.91634   0.91825   0.91919   0.92059   0.92597
 Alpha virt. eigenvalues --    0.92629   0.92800   0.92976   0.93200   0.93479
 Alpha virt. eigenvalues --    0.93547   0.94277   0.94376   0.94754   0.94955
 Alpha virt. eigenvalues --    0.95163   0.95732   0.96111   0.96129   0.96383
 Alpha virt. eigenvalues --    0.96457   0.97262   0.97468   0.97963   0.98165
 Alpha virt. eigenvalues --    0.98375   0.98894   0.98923   0.99475   0.99496
 Alpha virt. eigenvalues --    1.00020   1.00366   1.00563   1.00783   1.01080
 Alpha virt. eigenvalues --    1.01385   1.02285   1.02309   1.02590   1.03159
 Alpha virt. eigenvalues --    1.03400   1.03863   1.03951   1.04244   1.05315
 Alpha virt. eigenvalues --    1.05498   1.05642   1.05670   1.05743   1.06072
 Alpha virt. eigenvalues --    1.06127   1.06192   1.06202   1.06443   1.06500
 Alpha virt. eigenvalues --    1.06568   1.07029   1.07296   1.07865   1.07995
 Alpha virt. eigenvalues --    1.08390   1.09105   1.09161   1.09706   1.10978
 Alpha virt. eigenvalues --    1.11006   1.11018   1.11617   1.11855   1.12136
 Alpha virt. eigenvalues --    1.12592   1.12902   1.13511   1.13678   1.14236
 Alpha virt. eigenvalues --    1.14408   1.14616   1.14799   1.14812   1.14847
 Alpha virt. eigenvalues --    1.15199   1.15537   1.15691   1.15838   1.16138
 Alpha virt. eigenvalues --    1.16187   1.16364   1.16416   1.16649   1.16780
 Alpha virt. eigenvalues --    1.16907   1.17024   1.17160   1.17225   1.17443
 Alpha virt. eigenvalues --    1.17474   1.17549   1.17603   1.17681   1.17687
 Alpha virt. eigenvalues --    1.17853   1.17938   1.18177   1.18343   1.18547
 Alpha virt. eigenvalues --    1.18998   1.19187   1.19806   1.19919   1.20223
 Alpha virt. eigenvalues --    1.20554   1.20632   1.20655   1.20702   1.20819
 Alpha virt. eigenvalues --    1.20970   1.21127   1.21214   1.21407   1.21538
 Alpha virt. eigenvalues --    1.21687   1.21801   1.22565   1.22749   1.22938
 Alpha virt. eigenvalues --    1.22977   1.23190   1.23387   1.23783   1.23863
 Alpha virt. eigenvalues --    1.23979   1.24105   1.24211   1.24230   1.24472
 Alpha virt. eigenvalues --    1.24631   1.24699   1.24842   1.24865   1.25162
 Alpha virt. eigenvalues --    1.25199   1.25317   1.25546   1.25739   1.25948
 Alpha virt. eigenvalues --    1.26448   1.26670   1.27230   1.27528   1.27629
 Alpha virt. eigenvalues --    1.27772   1.27928   1.27942   1.27998   1.28150
 Alpha virt. eigenvalues --    1.28234   1.28249   1.28326   1.28356   1.28451
 Alpha virt. eigenvalues --    1.28647   1.28680   1.28814   1.28856   1.29364
 Alpha virt. eigenvalues --    1.29392   1.29457   1.29631   1.29840   1.29866
 Alpha virt. eigenvalues --    1.29929   1.30222   1.30290   1.30425   1.30773
 Alpha virt. eigenvalues --    1.30849   1.30908   1.31057   1.31287   1.31415
 Alpha virt. eigenvalues --    1.31566   1.31974   1.32274   1.32607   1.32671
 Alpha virt. eigenvalues --    1.32789   1.32846   1.33078   1.33524   1.33620
 Alpha virt. eigenvalues --    1.33771   1.33829   1.33923   1.34082   1.34239
 Alpha virt. eigenvalues --    1.34268   1.34355   1.34475   1.34548   1.34792
 Alpha virt. eigenvalues --    1.35204   1.35572   1.35596   1.35917   1.36315
 Alpha virt. eigenvalues --    1.38062   1.38695   1.40069   1.40906   1.41187
 Alpha virt. eigenvalues --    1.41273   1.41494   1.41567   1.41970   1.42623
 Alpha virt. eigenvalues --    1.43585   1.44519   1.44846   1.45337   1.45511
 Alpha virt. eigenvalues --    1.46095   1.46284   1.46708   1.47370   1.47599
 Alpha virt. eigenvalues --    1.47749   1.48015   1.48100   1.48341   1.48784
 Alpha virt. eigenvalues --    1.48919   1.48934   1.48949   1.49038   1.49042
 Alpha virt. eigenvalues --    1.49141   1.49303   1.49678   1.50079   1.50288
 Alpha virt. eigenvalues --    1.50760   1.51144   1.51752   1.52173   1.52433
 Alpha virt. eigenvalues --    1.53030   1.53611   1.53923   1.54290   1.54646
 Alpha virt. eigenvalues --    1.54944   1.55309   1.55502   1.55899   1.56052
 Alpha virt. eigenvalues --    1.56223   1.56482   1.56796   1.57115   1.57269
 Alpha virt. eigenvalues --    1.57481   1.57537   1.57667   1.57776   1.57851
 Alpha virt. eigenvalues --    1.57938   1.58175   1.58392   1.58469   1.58709
 Alpha virt. eigenvalues --    1.58949   1.59125   1.59415   1.59444   1.59515
 Alpha virt. eigenvalues --    1.59594   1.59989   1.60140   1.60313   1.60415
 Alpha virt. eigenvalues --    1.60494   1.60579   1.60888   1.61298   1.61631
 Alpha virt. eigenvalues --    1.61842   1.62504   1.62609   1.62834   1.63678
 Alpha virt. eigenvalues --    1.63704   1.64178   1.64232   1.64523   1.64848
 Alpha virt. eigenvalues --    1.65082   1.65417   1.65748   1.66018   1.66828
 Alpha virt. eigenvalues --    1.66886   1.66995   1.67055   1.67402   1.67765
 Alpha virt. eigenvalues --    1.67850   1.68076   1.68517   1.68715   1.68823
 Alpha virt. eigenvalues --    1.69237   1.69494   1.69775   1.69945   1.70044
 Alpha virt. eigenvalues --    1.70161   1.70216   1.70475   1.70528   1.70615
 Alpha virt. eigenvalues --    1.70976   1.71219   1.71439   1.71579   1.71821
 Alpha virt. eigenvalues --    1.71933   1.71996   1.72061   1.72547   1.72797
 Alpha virt. eigenvalues --    1.72986   1.73179   1.73312   1.73978   1.74112
 Alpha virt. eigenvalues --    1.74521   1.74564   1.74767   1.75181   1.75355
 Alpha virt. eigenvalues --    1.75633   1.76221   1.76426   1.76528   1.77105
 Alpha virt. eigenvalues --    1.77259   1.77383   1.77561   1.77710   1.77902
 Alpha virt. eigenvalues --    1.77999   1.78346   1.78561   1.78883   1.79068
 Alpha virt. eigenvalues --    1.79169   1.79326   1.79543   1.80168   1.80198
 Alpha virt. eigenvalues --    1.80248   1.80390   1.80962   1.81206   1.81360
 Alpha virt. eigenvalues --    1.81690   1.81812   1.82013   1.82243   1.82703
 Alpha virt. eigenvalues --    1.82860   1.82924   1.83058   1.83142   1.83257
 Alpha virt. eigenvalues --    1.83387   1.83692   1.83830   1.84064   1.84723
 Alpha virt. eigenvalues --    1.84991   1.85093   1.85340   1.85470   1.85639
 Alpha virt. eigenvalues --    1.85860   1.86085   1.86300   1.87251   1.87501
 Alpha virt. eigenvalues --    1.87776   1.88129   1.88468   1.88499   1.88776
 Alpha virt. eigenvalues --    1.89103   1.89675   1.89960   1.90137   1.90484
 Alpha virt. eigenvalues --    1.90499   1.90799   1.90820   1.91595   1.91728
 Alpha virt. eigenvalues --    1.92291   1.92642   1.93238   1.93508   1.93649
 Alpha virt. eigenvalues --    1.94107   1.94656   1.94667   1.94928   1.95104
 Alpha virt. eigenvalues --    1.95688   1.96403   1.96762   1.96948   1.97129
 Alpha virt. eigenvalues --    1.97312   1.97837   1.98337   1.99213   1.99604
 Alpha virt. eigenvalues --    2.00173   2.00451   2.00724   2.00738   2.00845
 Alpha virt. eigenvalues --    2.01131   2.01175   2.01367   2.01458   2.01479
 Alpha virt. eigenvalues --    2.01808   2.01887   2.01963   2.02267   2.02330
 Alpha virt. eigenvalues --    2.02405   2.02706   2.03172   2.03318   2.03539
 Alpha virt. eigenvalues --    2.03789   2.03849   2.04461   2.04500   2.04669
 Alpha virt. eigenvalues --    2.04875   2.05065   2.05168   2.05705   2.05729
 Alpha virt. eigenvalues --    2.05937   2.06007   2.06160   2.06312   2.06912
 Alpha virt. eigenvalues --    2.07390   2.07440   2.07752   2.08385   2.08973
 Alpha virt. eigenvalues --    2.09225   2.09286   2.09416   2.09448   2.09696
 Alpha virt. eigenvalues --    2.09764   2.10077   2.10299   2.10414   2.10699
 Alpha virt. eigenvalues --    2.11249   2.11304   2.11441   2.11674   2.11785
 Alpha virt. eigenvalues --    2.11849   2.12033   2.12101   2.12307   2.12616
 Alpha virt. eigenvalues --    2.12728   2.13418   2.13980   2.14106   2.14930
 Alpha virt. eigenvalues --    2.15225   2.15530   2.15751   2.16629   2.17500
 Alpha virt. eigenvalues --    2.17723   2.17932   2.18109   2.18324   2.18402
 Alpha virt. eigenvalues --    2.18704   2.19371   2.19491   2.20091   2.20599
 Alpha virt. eigenvalues --    2.20982   2.20983   2.21086   2.21438   2.21561
 Alpha virt. eigenvalues --    2.21674   2.21838   2.21906   2.22034   2.22299
 Alpha virt. eigenvalues --    2.22401   2.22445   2.22710   2.22736   2.22764
 Alpha virt. eigenvalues --    2.22819   2.23070   2.23117   2.23408   2.23568
 Alpha virt. eigenvalues --    2.23873   2.24646   2.24721   2.25471   2.25917
 Alpha virt. eigenvalues --    2.26279   2.26987   2.27030   2.27207   2.27384
 Alpha virt. eigenvalues --    2.27519   2.27539   2.28317   2.28575   2.29608
 Alpha virt. eigenvalues --    2.30396   2.30591   2.30948   2.31351   2.31364
 Alpha virt. eigenvalues --    2.31410   2.31729   2.32082   2.33390   2.33416
 Alpha virt. eigenvalues --    2.33530   2.33625   2.33813   2.33955   2.34478
 Alpha virt. eigenvalues --    2.34889   2.35438   2.36126   2.36574   2.36636
 Alpha virt. eigenvalues --    2.36739   2.36812   2.37186   2.37338   2.37386
 Alpha virt. eigenvalues --    2.37414   2.37468   2.37568   2.37711   2.38447
 Alpha virt. eigenvalues --    2.38501   2.39600   2.40382   2.40962   2.41734
 Alpha virt. eigenvalues --    2.42346   2.42519   2.42773   2.42879   2.43004
 Alpha virt. eigenvalues --    2.43400   2.43539   2.43831   2.44087   2.44261
 Alpha virt. eigenvalues --    2.44591   2.45287   2.45466   2.45563   2.46247
 Alpha virt. eigenvalues --    2.46311   2.47290   2.47610   2.47833   2.48036
 Alpha virt. eigenvalues --    2.48370   2.48471   2.48491   2.48526   2.48565
 Alpha virt. eigenvalues --    2.48678   2.48711   2.48804   2.49014   2.49129
 Alpha virt. eigenvalues --    2.49559   2.49723   2.50145   2.50466   2.50695
 Alpha virt. eigenvalues --    2.51586   2.51654   2.52237   2.52286   2.52310
 Alpha virt. eigenvalues --    2.52374   2.52414   2.52737   2.52953   2.53066
 Alpha virt. eigenvalues --    2.53067   2.53102   2.53142   2.53443   2.54102
 Alpha virt. eigenvalues --    2.54134   2.54448   2.54782   2.55169   2.55191
 Alpha virt. eigenvalues --    2.55267   2.55384   2.55479   2.55594   2.55645
 Alpha virt. eigenvalues --    2.55763   2.55834   2.55854   2.55877   2.56206
 Alpha virt. eigenvalues --    2.56433   2.56464   2.56483   2.57125   2.57280
 Alpha virt. eigenvalues --    2.57760   2.57895   2.58087   2.58597   2.59021
 Alpha virt. eigenvalues --    2.60311   2.60747   2.61327   2.61686   2.61870
 Alpha virt. eigenvalues --    2.62213   2.62406   2.62919   2.63710   2.64127
 Alpha virt. eigenvalues --    2.64781   2.65202   2.65407   2.65640   2.65756
 Alpha virt. eigenvalues --    2.66267   2.68070   2.68611   2.68962   2.69345
 Alpha virt. eigenvalues --    2.69525   2.69797   2.69898   2.70309   2.70802
 Alpha virt. eigenvalues --    2.71047   2.71140   2.71850   2.72211   2.72357
 Alpha virt. eigenvalues --    2.72568   2.72928   2.73625   2.78359   2.78903
 Alpha virt. eigenvalues --    2.79085   2.79142   2.80238   2.80893   2.81290
 Alpha virt. eigenvalues --    2.81445   2.81536   2.81806   2.81882   2.81966
 Alpha virt. eigenvalues --    2.82287   2.82914   2.83531   2.83744   2.84181
 Alpha virt. eigenvalues --    2.84812   2.84878   2.84941   2.85272   2.85445
 Alpha virt. eigenvalues --    2.85600   2.85829   2.86663   2.88117   2.88921
 Alpha virt. eigenvalues --    2.88997   2.89235   2.89313   2.89322   2.97480
 Alpha virt. eigenvalues --    2.97749   2.97819   2.97825   2.98241   2.98788
 Alpha virt. eigenvalues --    3.03484   3.04316   3.05671   3.05971   3.06150
 Alpha virt. eigenvalues --    3.06393   3.07637   3.12063   3.12182   3.12424
 Alpha virt. eigenvalues --    3.12462   3.12736   3.21355   3.22429   3.23543
 Alpha virt. eigenvalues --    3.23845   3.24183   3.24336   3.24742   3.26507
 Alpha virt. eigenvalues --    3.26573   3.26826   3.26899   3.27331   3.66397
 Alpha virt. eigenvalues --    3.69452   3.70199   3.71057   3.72084   3.73754
 Alpha virt. eigenvalues --    3.73915   3.75648   3.76341   3.76572   3.76764
 Alpha virt. eigenvalues --    3.77086   3.77455   3.77786   3.78448   3.78515
 Alpha virt. eigenvalues --    3.79005   3.79247   3.80608   3.81044   3.81178
 Alpha virt. eigenvalues --    3.82415   3.82517   3.82722   3.83047   3.83306
 Alpha virt. eigenvalues --    3.83830   3.84163   3.84826   3.85066   3.86792
 Alpha virt. eigenvalues --    3.87197   3.87293   3.89613   3.91013   3.91419
 Alpha virt. eigenvalues --    3.92499   3.93075   3.93724   3.94821   3.95516
 Alpha virt. eigenvalues --    3.95833   3.96703   3.97152   3.98001   3.98537
 Alpha virt. eigenvalues --    3.99047   3.99291   4.00698   4.01348   4.01530
 Alpha virt. eigenvalues --    4.01933   4.02538   4.02868   4.03005   4.03507
 Alpha virt. eigenvalues --    4.03742   4.04880   4.05491   4.05725   4.06788
 Alpha virt. eigenvalues --    4.07103   4.07585   4.07856   4.08342   4.08740
 Alpha virt. eigenvalues --    4.08923   4.09935   4.10075   4.11066   4.11176
 Alpha virt. eigenvalues --    4.12547   4.13086   4.13813   4.15057   4.16426
 Alpha virt. eigenvalues --    4.17641   4.18662   4.20545   4.21146   4.22060
 Alpha virt. eigenvalues --    4.22306   4.24085   4.24231   4.26647   4.27692
 Alpha virt. eigenvalues --    4.28054   4.29072   4.31407   4.31755   4.35314
 Alpha virt. eigenvalues --    4.36966   4.37191   4.37455   4.39986   4.40864
 Alpha virt. eigenvalues --    4.41920   4.42657   4.43368   4.43500   4.44626
 Alpha virt. eigenvalues --    4.44971   4.46919   4.47174   4.47678   4.48077
 Alpha virt. eigenvalues --    4.52539   4.53018   4.66162   4.67252   4.70268
 Alpha virt. eigenvalues --    4.75077   4.80221
          Condensed to atoms (all electrons):
 Mulliken charges:
               1
     1  H    0.442666
     2  N   -0.670467
     3  C    0.252193
     4  H    0.275169
     5  N   -0.746530
     6  C   -0.014450
     7  C    0.884792
     8  O   -0.863248
     9  N   -0.813622
    10  H    0.455729
    11  C    1.049053
    12  N   -1.107635
    13  H    0.460996
    14  H    0.477387
    15  N   -0.876872
    16  C    0.707571
    17  H    0.442484
    18  N   -0.669917
    19  C    0.253869
    20  H    0.275365
    21  N   -0.748065
    22  C   -0.003201
    23  C    0.900571
    24  O   -0.871277
    25  N   -0.812896
    26  H    0.460125
    27  C    1.038831
    28  N   -1.107040
    29  H    0.460711
    30  H    0.482348
    31  N   -0.874721
    32  C    0.706049
    33  H    0.446523
    34  N   -0.639591
    35  C    0.125915
    36  H    0.294341
    37  C   -0.576011
    38  H    0.301237
    39  C    0.813222
    40  N   -1.078920
    41  H    0.501245
    42  H    0.462035
    43  N   -0.840750
    44  C    1.110772
    45  O   -0.864134
    46  H    0.442130
    47  N   -0.659254
    48  C    0.280020
    49  H    0.274766
    50  N   -0.751860
[...]
   Exchange-correlation      = -0.000000157 eV
   w-avg*Overlap             =  0.000000115 eV (w-avg=  7.0476 eV, Ovlp= 0.163533D-07)
   Total coupling            =  0.000646416 eV

 Frag= 12 State=  7 (w=  7.0475 eV) <=> Frag= 11 State=  8 (w=  7.3725 eV)

   delta-w                   = -0.325045094 eV
   Coulomb                   = -0.000482484 eV
   Exact-exchange            = -0.000012844 eV
   Exchange-correlation      = -0.000000568 eV
   w-avg*Overlap             =  0.000000138 eV (w-avg=  7.2100 eV, Ovlp= 0.190858D-07)
   Total coupling            = -0.000495759 eV

 Frag= 12 State=  7 (w=  7.0475 eV) <=> Frag= 11 State=  9 (w=  7.5725 eV)

   delta-w                   = -0.524978054 eV
   Coulomb                   = -0.000162412 eV
   Exact-exchange            = -0.000001765 eV
   Exchange-correlation      =  0.000000149 eV
   w-avg*Overlap             = -0.000000007 eV (w-avg=  7.3100 eV, Ovlp=-0.102093D-08)
   Total coupling            = -0.000164035 eV

 Frag= 12 State=  7 (w=  7.0475 eV) <=> Frag= 11 State= 10 (w=  8.0485 eV)

   delta-w                   = -1.001020654 eV
   Coulomb                   = -0.000187843 eV
   Exact-exchange            = -0.000048519 eV
   Exchange-correlation      = -0.000001918 eV
   w-avg*Overlap             =  0.000000746 eV (w-avg=  7.5480 eV, Ovlp= 0.988019D-07)
   Total coupling            = -0.000237534 eV

 Frag= 12 State=  8 (w=  7.3723 eV) <=> Frag= 11 State=  1 (w=  5.1321 eV)

   delta-w                   =  2.240217972 eV
   Coulomb                   = -0.025455852 eV
   Exact-exchange            =  0.000192536 eV
   Exchange-correlation      =  0.000006885 eV
   w-avg*Overlap             = -0.000004513 eV (w-avg=  6.2522 eV, Ovlp=-0.721849D-06)
   Total coupling            = -0.025260944 eV

 Frag= 12 State=  8 (w=  7.3723 eV) <=> Frag= 11 State=  2 (w=  5.2888 eV)

   delta-w                   =  2.083558265 eV
   Coulomb                   =  0.000089528 eV
   Exact-exchange            =  0.000002573 eV
   Exchange-correlation      =  0.000001617 eV
   w-avg*Overlap             = -0.000000750 eV (w-avg=  6.3306 eV, Ovlp=-0.118471D-06)
   Total coupling            =  0.000092968 eV

 Frag= 12 State=  8 (w=  7.3723 eV) <=> Frag= 11 State=  3 (w=  5.8507 eV)

   delta-w                   =  1.521613041 eV
   Coulomb                   = -0.001007953 eV
   Exact-exchange            = -0.000005781 eV
   Exchange-correlation      = -0.000000138 eV
   w-avg*Overlap             =  0.000000297 eV (w-avg=  6.6115 eV, Ovlp= 0.449944D-07)
   Total coupling            = -0.001013574 eV

 Frag= 12 State=  8 (w=  7.3723 eV) <=> Frag= 11 State=  4 (w=  6.1418 eV)

   delta-w                   =  1.230560380 eV
   Coulomb                   =  0.045343645 eV
   Exact-exchange            =  0.000037389 eV
   Exchange-correlation      = -0.000009293 eV
   w-avg*Overlap             =  0.000002888 eV (w-avg=  6.7570 eV, Ovlp= 0.427444D-06)
   Total coupling            =  0.045374630 eV

 Frag= 12 State=  8 (w=  7.3723 eV) <=> Frag= 11 State=  5 (w=  6.4655 eV)

   delta-w                   =  0.906857029 eV
   Coulomb                   =  0.000661089 eV
   Exact-exchange            =  0.000002338 eV
   Exchange-correlation      =  0.000000322 eV
   w-avg*Overlap             = -0.000000257 eV (w-avg=  6.9189 eV, Ovlp=-0.371695D-07)
   Total coupling            =  0.000663492 eV

 Frag= 12 State=  8 (w=  7.3723 eV) <=> Frag= 11 State=  6 (w=  7.0227 eV)

   delta-w                   =  0.349669238 eV
   Coulomb                   =  0.058350428 eV
   Exact-exchange            = -0.000054132 eV
   Exchange-correlation      = -0.000006637 eV
   w-avg*Overlap             =  0.000002130 eV (w-avg=  7.1975 eV, Ovlp= 0.295942D-06)
   Total coupling            =  0.058291790 eV

 Frag= 12 State=  8 (w=  7.3723 eV) <=> Frag= 11 State=  7 (w=  7.0478 eV)

   delta-w                   =  0.324522687 eV
   Coulomb                   = -0.000312683 eV
   Exact-exchange            = -0.000010031 eV
   Exchange-correlation      = -0.000000069 eV
   w-avg*Overlap             =  0.000000293 eV (w-avg=  7.2101 eV, Ovlp= 0.406671D-07)
   Total coupling            = -0.000322489 eV

 Frag= 12 State=  8 (w=  7.3723 eV) <=> Frag= 11 State=  8 (w=  7.3725 eV)

   delta-w                   = -0.000199829 eV
   Coulomb                   =  0.044776784 eV
   Exact-exchange            = -0.000051796 eV
   Exchange-correlation      = -0.000007133 eV
   w-avg*Overlap             =  0.000002090 eV (w-avg=  7.3724 eV, Ovlp= 0.283510D-06)
   Total coupling            =  0.044719946 eV

 Frag= 12 State=  8 (w=  7.3723 eV) <=> Frag= 11 State=  9 (w=  7.5725 eV)

   delta-w                   = -0.200132790 eV
   Coulomb                   =  0.000230579 eV
   Exact-exchange            = -0.000010036 eV
   Exchange-correlation      =  0.000000652 eV
   w-avg*Overlap             =  0.000000684 eV (w-avg=  7.4724 eV, Ovlp= 0.915018D-07)
   Total coupling            =  0.000221878 eV

 Frag= 12 State=  8 (w=  7.3723 eV) <=> Frag= 11 State= 10 (w=  8.0485 eV)

   delta-w                   = -0.676175389 eV
   Coulomb                   =  0.006145700 eV
   Exact-exchange            = -0.000309054 eV
   Exchange-correlation      = -0.000010871 eV
   w-avg*Overlap             =  0.000008355 eV (w-avg=  7.7104 eV, Ovlp= 0.108358D-05)
   Total coupling            =  0.005834131 eV

 Frag= 12 State=  9 (w=  7.5723 eV) <=> Frag= 11 State=  1 (w=  5.1321 eV)

   delta-w                   =  2.440190773 eV
   Coulomb                   =  0.001176504 eV
   Exact-exchange            = -0.000142513 eV
   Exchange-correlation      = -0.000003472 eV
   w-avg*Overlap             =  0.000002447 eV (w-avg=  6.3522 eV, Ovlp= 0.385278D-06)
   Total coupling            =  0.001032967 eV

 Frag= 12 State=  9 (w=  7.5723 eV) <=> Frag= 11 State=  2 (w=  5.2888 eV)

   delta-w                   =  2.283531066 eV
   Coulomb                   =  0.000018331 eV
   Exact-exchange            = -0.000009277 eV
   Exchange-correlation      = -0.000000156 eV
   w-avg*Overlap             =  0.000000298 eV (w-avg=  6.4305 eV, Ovlp= 0.463993D-07)
   Total coupling            =  0.000009196 eV

 Frag= 12 State=  9 (w=  7.5723 eV) <=> Frag= 11 State=  3 (w=  5.8507 eV)

   delta-w                   =  1.721585842 eV
   Coulomb                   =  0.000032618 eV
   Exact-exchange            =  0.000006259 eV
   Exchange-correlation      = -0.000000055 eV
   w-avg*Overlap             = -0.000000110 eV (w-avg=  6.7115 eV, Ovlp=-0.164545D-07)
   Total coupling            =  0.000038712 eV

 Frag= 12 State=  9 (w=  7.5723 eV) <=> Frag= 11 State=  4 (w=  6.1418 eV)

   delta-w                   =  1.430533181 eV
   Coulomb                   = -0.000271601 eV
   Exact-exchange            =  0.000027834 eV
   Exchange-correlation      =  0.000002580 eV
   w-avg*Overlap             = -0.000001524 eV (w-avg=  6.8570 eV, Ovlp=-0.222226D-06)
   Total coupling            = -0.000242711 eV

 Frag= 12 State=  9 (w=  7.5723 eV) <=> Frag= 11 State=  5 (w=  6.4655 eV)

   delta-w                   =  1.106829831 eV
   Coulomb                   = -0.000131004 eV
   Exact-exchange            =  0.000004007 eV
   Exchange-correlation      =  0.000000301 eV
   w-avg*Overlap             =  0.000000067 eV (w-avg=  7.0189 eV, Ovlp= 0.959141D-08)
   Total coupling            = -0.000126628 eV

 Frag= 12 State=  9 (w=  7.5723 eV) <=> Frag= 11 State=  6 (w=  7.0227 eV)

   delta-w                   =  0.549642039 eV
   Coulomb                   =  0.000795271 eV
   Exact-exchange            = -0.000006270 eV
   Exchange-correlation      =  0.000003122 eV
   w-avg*Overlap             = -0.000001195 eV (w-avg=  7.2975 eV, Ovlp=-0.163731D-06)
   Total coupling            =  0.000790928 eV

 Frag= 12 State=  9 (w=  7.5723 eV) <=> Frag= 11 State=  7 (w=  7.0478 eV)

   delta-w                   =  0.524495489 eV
   Coulomb                   =  0.000048497 eV
   Exact-exchange            =  0.000012939 eV
   Exchange-correlation      =  0.000000168 eV
   w-avg*Overlap             = -0.000000221 eV (w-avg=  7.3101 eV, Ovlp=-0.301933D-07)
   Total coupling            =  0.000061383 eV

 Frag= 12 State=  9 (w=  7.5723 eV) <=> Frag= 11 State=  8 (w=  7.3725 eV)

   delta-w                   =  0.199772972 eV
   Coulomb                   = -0.000508056 eV
   Exact-exchange            =  0.000063994 eV
   Exchange-correlation      =  0.000001554 eV
   w-avg*Overlap             = -0.000000739 eV (w-avg=  7.4724 eV, Ovlp=-0.988632D-07)
   Total coupling            = -0.000443246 eV

 Frag= 12 State=  9 (w=  7.5723 eV) <=> Frag= 11 State=  9 (w=  7.5725 eV)

   delta-w                   = -0.000159988 eV
   Coulomb                   =  0.000049265 eV
   Exact-exchange            =  0.000038000 eV
   Exchange-correlation      = -0.000000489 eV
   w-avg*Overlap             = -0.000000047 eV (w-avg=  7.5724 eV, Ovlp=-0.615691D-08)
   Total coupling            =  0.000086730 eV

 Frag= 12 State=  9 (w=  7.5723 eV) <=> Frag= 11 State= 10 (w=  8.0485 eV)

   delta-w                   = -0.476202588 eV
   Coulomb                   = -0.000102528 eV
   Exact-exchange            =  0.000120301 eV
   Exchange-correlation      =  0.000004455 eV
   w-avg*Overlap             = -0.000001499 eV (w-avg=  7.8104 eV, Ovlp=-0.191957D-06)
   Total coupling            =  0.000020729 eV

 Frag= 12 State= 10 (w=  8.0484 eV) <=> Frag= 11 State=  1 (w=  5.1321 eV)

   delta-w                   =  2.916279246 eV
   Coulomb                   =  0.004048271 eV
   Exact-exchange            = -0.000701799 eV
   Exchange-correlation      = -0.000011368 eV
   w-avg*Overlap             =  0.000012507 eV (w-avg=  6.5903 eV, Ovlp= 0.189779D-05)
   Total coupling            =  0.003347611 eV

 Frag= 12 State= 10 (w=  8.0484 eV) <=> Frag= 11 State=  2 (w=  5.2888 eV)

   delta-w                   =  2.759619539 eV
   Coulomb                   =  0.000330418 eV
   Exact-exchange            = -0.000103382 eV
   Exchange-correlation      =  0.000000561 eV
   w-avg*Overlap             =  0.000002276 eV (w-avg=  6.6686 eV, Ovlp= 0.341328D-06)
   Total coupling            =  0.000229873 eV

 Frag= 12 State= 10 (w=  8.0484 eV) <=> Frag= 11 State=  3 (w=  5.8507 eV)

   delta-w                   =  2.197674315 eV
   Coulomb                   =  0.000014246 eV
   Exact-exchange            =  0.000046567 eV
   Exchange-correlation      =  0.000000500 eV
   w-avg*Overlap             = -0.000000824 eV (w-avg=  6.9496 eV, Ovlp=-0.118511D-06)
   Total coupling            =  0.000060489 eV

 Frag= 12 State= 10 (w=  8.0484 eV) <=> Frag= 11 State=  4 (w=  6.1418 eV)

   delta-w                   =  1.906621654 eV
   Coulomb                   = -0.006712294 eV
   Exact-exchange            =  0.000067470 eV
   Exchange-correlation      =  0.000024412 eV
   w-avg*Overlap             = -0.000015085 eV (w-avg=  7.0951 eV, Ovlp=-0.212613D-05)
   Total coupling            = -0.006635498 eV

 Frag= 12 State= 10 (w=  8.0484 eV) <=> Frag= 11 State=  5 (w=  6.4655 eV)

   delta-w                   =  1.582918303 eV
   Coulomb                   =  0.000035683 eV
   Exact-exchange            = -0.000010647 eV
   Exchange-correlation      = -0.000000824 eV
   w-avg*Overlap             =  0.000000505 eV (w-avg=  7.2569 eV, Ovlp= 0.696284D-07)
   Total coupling            =  0.000024717 eV

 Frag= 12 State= 10 (w=  8.0484 eV) <=> Frag= 11 State=  6 (w=  7.0227 eV)

   delta-w                   =  1.025730512 eV
   Coulomb                   = -0.010758685 eV
   Exact-exchange            =  0.000272060 eV
   Exchange-correlation      =  0.000032997 eV
   w-avg*Overlap             = -0.000014135 eV (w-avg=  7.5355 eV, Ovlp=-0.187583D-05)
   Total coupling            = -0.010467764 eV

 Frag= 12 State= 10 (w=  8.0484 eV) <=> Frag= 11 State=  7 (w=  7.0478 eV)

   delta-w                   =  1.000583961 eV
   Coulomb                   = -0.000071495 eV
   Exact-exchange            =  0.000065577 eV
   Exchange-correlation      =  0.000001454 eV
   w-avg*Overlap             = -0.000001681 eV (w-avg=  7.5481 eV, Ovlp=-0.222757D-06)
   Total coupling            = -0.000006145 eV

 Frag= 12 State= 10 (w=  8.0484 eV) <=> Frag= 11 State=  8 (w=  7.3725 eV)

   delta-w                   =  0.675861445 eV
   Coulomb                   = -0.004049051 eV
   Exact-exchange            =  0.000335497 eV
   Exchange-correlation      =  0.000009624 eV
   w-avg*Overlap             = -0.000006825 eV (w-avg=  7.7105 eV, Ovlp=-0.885131D-06)
   Total coupling            = -0.003710754 eV

 Frag= 12 State= 10 (w=  8.0484 eV) <=> Frag= 11 State=  9 (w=  7.5725 eV)

   delta-w                   =  0.475928484 eV
   Coulomb                   = -0.000154792 eV
   Exact-exchange            =  0.000015986 eV
   Exchange-correlation      = -0.000000976 eV
   w-avg*Overlap             = -0.000000790 eV (w-avg=  7.8104 eV, Ovlp=-0.101184D-06)
   Total coupling            = -0.000140573 eV

 Frag= 12 State= 10 (w=  8.0484 eV) <=> Frag= 11 State= 10 (w=  8.0485 eV)

   delta-w                   = -0.000114115 eV
   Coulomb                   = -0.001128909 eV
   Exact-exchange            =  0.001346280 eV
   Exchange-correlation      =  0.000050785 eV
   w-avg*Overlap             = -0.000019325 eV (w-avg=  8.0484 eV, Ovlp=-0.240111D-05)
   Total coupling            =  0.000248831 eV
 
 Leave Link  925 at Fri Sep 11 22:59:13 2015, MaxMem= 17179869184 cpu:          223150.8 elap:           18653.5
 (Enter /cm/shared/apps/gaussian/gdvH36/gdv/l9999.exe)
 Unable to Open any file for archive entry.
 1\1\GINC-RAPTOR\SP\RM062X TD-FC\6-31G(d)\C54H58N46O13\LORENZO\11-Sep-2
 015\0\\#p td=(nstates=10) m062x/6-31g(d) nosymm eet(fragment=12)\\NMR 
 4 Prova gdvh36 normale\\0,1\H,0,-12.667467,-3.353724,5.248203\N,0,-12.
 316166,-2.409844,5.280387\C,0,-11.871553,-1.705141,6.386677\H,0,-11.86
 6472,-2.144962,7.373491\N,0,-11.478989,-0.498089,6.091357\C,0,-11.6699
 52,-0.392016,4.727138\C,0,-11.417719,0.706422,3.835104\O,0,-10.977316,
 1.818265,4.030831\N,0,-11.783307,0.325837,2.492893\H,0,-11.627145,1.06
 232,1.817897\C,0,-12.293026,-0.883346,2.097449\N,0,-12.575041,-1.04523
 9,0.775619\H,0,-12.948739,-1.930861,0.483777\H,0,-12.427469,-0.32752,0
 .090455\N,0,-12.517491,-1.876055,2.924331\C,0,-12.191215,-1.573832,4.2
 03647\H,0,-9.955395,-4.757953,0.533299\N,0,-9.575141,-4.013541,1.09598
 6\C,0,-9.327011,-4.01904,2.458545\H,0,-9.537309,-4.885468,3.068747\N,0
 ,-8.829614,-2.892569,2.885107\C,0,-8.741674,-2.099532,1.757203\C,0,-8.
 268434,-0.751178,1.60261\O,0,-7.825729,0.043855,2.402857\N,0,-8.377825
 ,-0.361974,0.218203\H,0,-8.057985,0.581956,0.047583\C,0,-8.853253,-1.1
 31921,-0.811099\N,0,-8.874969,-0.576943,-2.05388\H,0,-9.223106,-1.1397
 15,-2.809681\H,0,-8.562373,0.35713,-2.243983\N,0,-9.281626,-2.361231,-
 0.653352\C,0,-9.201814,-2.781005,0.631897\H,0,-6.014324,-3.839153,-3.2
 54883\N,0,-5.871283,-3.385462,-2.365135\C,0,-5.978317,-4.066545,-1.200
 742\H,0,-6.224487,-5.120208,-1.270024\C,0,-5.780411,-3.429348,-0.02051
 3\H,0,-5.860073,-3.950784,0.923943\C,0,-5.460448,-2.027272,-0.104933\N
 ,0,-5.250334,-1.330545,1.039714\H,0,-5.027732,-0.352011,0.964427\H,0,-
 5.309197,-1.755014,1.947477\N,0,-5.355687,-1.362187,-1.236368\C,0,-5.5
 52845,-1.992473,-2.436255\O,0,-5.480673,-1.475332,-3.531573\H,0,-1.130
 827,-2.079514,-5.530398\N,0,-1.059595,-2.233316,-4.537193\C,0,-1.32568
 7,-3.396027,-3.844042\H,0,-1.653811,-4.292988,-4.349934\N,0,-1.140117,
 -3.284529,-2.554775\C,0,-0.728041,-1.973997,-2.386036\C,0,-0.369199,-1
 .223962,-1.247538\N,0,-0.380036,-1.750819,-0.003932\H,0,-0.115245,-1.1
 73399,0.77543\H,0,-0.649224,-2.707928,0.141858\N,0,-0.004537,0.057888,
 -1.407723\C,0,0.002382,0.570026,-2.647217\H,0,0.305732,1.611098,-2.716
 449\N,0,-0.311471,-0.024394,-3.799063\C,0,-0.669464,-1.296998,-3.60582
 5\H,0,3.304656,-0.962158,-5.015961\N,0,3.187805,-1.592176,-4.236622\C,
 0,2.801557,-2.87615,-4.419284\H,0,2.624273,-3.194131,-5.440589\C,0,2.6
 53034,-3.6991,-3.352128\H,0,2.345417,-4.729376,-3.471045\C,0,2.928618,
 -3.118458,-2.062854\N,0,2.798983,-3.888217,-0.953593\H,0,2.994996,-3.4
 68377,-0.060249\H,0,2.517358,-4.850817,-0.995528\N,0,3.304533,-1.86964
 4,-1.882268\C,0,3.458738,-1.026671,-2.950667\O,0,3.799461,0.136607,-2.
 895377\H,0,8.121536,-1.248791,-2.306912\N,0,7.618315,-2.114429,-2.1908
 86\C,0,7.102593,-2.789445,-3.270869\H,0,7.277991,-2.324522,-4.233705\C
 ,0,6.427963,-3.946746,-3.133368\H,0,6.022894,-4.47671,-3.98288\C,0,6.2
 2642,-4.519888,-1.807057\O,0,5.639677,-5.550314,-1.552443\N,0,6.796525
 ,-3.745692,-0.771442\H,0,6.681608,-4.104746,0.167115\C,0,7.4948,-2.554
 974,-0.873378\O,0,7.955171,-1.948157,0.066682\H,0,10.97267,0.660444,6.
 207044\N,0,10.90799,0.897613,5.229841\C,0,11.496871,1.96533,4.573056\H
 ,0,12.116815,2.679254,5.09579\N,0,11.21606,1.991722,3.300758\C,0,10.40
 3493,0.892717,3.098934\C,0,9.780996,0.403801,1.899196\O,0,9.79772,0.81
 305,0.758715\N,0,9.024503,-0.785719,2.203807\H,0,8.561854,-1.176816,1.
 394232\C,0,8.898822,-1.381051,3.431854\N,0,8.134952,-2.504985,3.510921
 \H,0,8.041599,-2.942835,4.41021\H,0,7.667979,-2.908638,2.720131\N,0,9.
 473593,-0.922153,4.517505\C,0,10.200001,0.198118,4.289971\H,0,6.231063
 ,1.829121,4.155579\N,0,5.710981,0.986259,3.969954\C,0,5.29665,0.025382
 ,4.877264\H,0,5.514893,0.111186,5.93191\N,0,4.639654,-0.949393,4.31471
 1\C,0,4.614114,-0.625021,2.971974\C,0,4.031231,-1.321114,1.857696\O,0,
 3.414804,-2.362316,1.791552\N,0,4.272913,-0.573997,0.647971\H,0,3.8839
 5,-1.017151,-0.173452\C,0,4.947699,0.614303,0.543458\N,0,5.068569,1.16
 2173,-0.696786\H,0,5.562845,2.033177,-0.77547\H,0,4.690175,0.738693,-1
 .523726\N,0,5.473979,1.237048,1.570496\C,0,5.276924,0.578357,2.737433\
 H,0,2.019248,4.273367,1.297505\N,0,1.701446,3.348267,1.540847\C,0,1.75
 9403,2.892252,2.835711\H,0,2.165346,3.593279,3.555255\C,0,1.339125,1.6
 5945,3.177678\H,0,1.385046,1.30179,4.195806\C,0,0.802285,0.763652,2.15
 9071\O,0,0.393549,-0.363968,2.338742\N,0,0.788859,1.332705,0.865666\H,
 0,0.424419,0.747107,0.125886\C,0,1.210944,2.592141,0.476497\O,0,1.1668
 92,3.009068,-0.658454\H,0,-2.577266,5.56584,-1.422823\N,0,-2.817957,4.
 899157,-0.706611\C,0,-2.70462,5.047171,0.665763\H,0,-2.32121,5.955584,
 1.107411\N,0,-3.103526,3.993834,1.321241\C,0,-3.500936,3.102756,0.3430
 51\C,0,-4.032712,1.772301,0.457134\O,0,-4.273503,1.081146,1.422943\N,0
 ,-4.295571,1.247992,-0.860452\H,0,-4.672939,0.31006,-0.843483\C,0,-4.0
 83135,1.890714,-2.05213\N,0,-4.398262,1.21965,-3.193771\H,0,-4.24327,1
 .689067,-4.068284\H,0,-4.773426,0.289285,-3.198414\N,0,-3.596938,3.105
 464,-2.139203\C,0,-3.330402,3.649188,-0.927688\H,0,-7.586902,4.488546,
 -2.908751\N,0,-7.520841,4.197787,-1.944882\C,0,-7.187784,5.070715,-0.9
 66\H,0,-6.995938,6.094612,-1.266726\C,0,-7.107002,4.650238,0.32039\H,0
 ,-6.842851,5.327802,1.121246\C,0,-7.392819,3.25694,0.54919\N,0,-7.3297
 04,2.77172,1.814248\H,0,-7.532011,1.796455,1.958048\H,0,-7.090655,3.34
 7538,2.600989\N,0,-7.717083,2.405495,-0.401258\C,0,-7.802601,2.815745,
 -1.705192\O,0,-8.092003,2.116068,-2.653381\H,0,-12.931469,2.948953,-2.
 414114\N,0,-12.44937,3.231045,-1.573905\C,0,-11.953228,4.481927,-1.431
 498\H,0,-12.098425,5.164282,-2.261507\C,0,-11.309994,4.83164,-0.290412
 \H,0,-10.904289,5.824807,-0.151628\C,0,-11.202959,3.805371,0.714892\N,
 0,-10.570793,4.090081,1.880696\H,0,-10.504078,3.362867,2.573125\H,0,-1
 0.172741,4.991608,2.071682\N,0,-11.684711,2.587627,0.578978\C,0,-12.33
 6807,2.219968,-0.567956\O,0,-12.816575,1.128736,-0.79467\\Version=ES64
 L-GDVRevH.36\HF=-394.7675863\RMSD=4.510e-09\PG=C01 [X(C54H58N46O13)]\\
 @
 The archive entry for this job was punched.


 NOTHING RESEMBLES A NEW PHENOMENON AS MUCH AS A MISTAKE.

                               -- ENRICO FERMI (?)
 Job cpu time:       2 days 16 hours 37 minutes 25.5 seconds.
 Elapsed time:       0 days  5 hours 24 minutes  7.4 seconds.
 File lengths (MBytes):  RWF=   7494 Int=      0 D2E=      0 Chk=   1146 Scr=      1
 Normal termination of Gaussian DV at Fri Sep 11 22:59:15 2015.
